ground state                                                            
SP        UHF                                                         6-31G(d)            
Number of atoms                            I               10
Info1-9                                    I   N=           9
          44          44           0           0           0         110
           1           1           2
Full Title                                 C   N=           1
ground state
Route                                      C   N=           2
# UHF/6-31G(d) Nosymm   
Charge                                     I                0
Multiplicity                               I                1
Number of electrons                        I               40
Number of alpha electrons                  I               20
Number of beta electrons                   I               20
Number of basis functions                  I               85
Number of independent functions            I               85
Number of point charges in /Mol/           I                0
Number of translation vectors              I                0
Atomic numbers                             I   N=          10
           6           8           8           1           6           1
           1           7           1           1
Nuclear charges                            R   N=          10
  6.00000000E+00  8.00000000E+00  8.00000000E+00  1.00000000E+00  6.00000000E+00
  1.00000000E+00  1.00000000E+00  7.00000000E+00  1.00000000E+00  1.00000000E+00
Current cartesian coordinates              R   N=          30
  0.00000000E+00  0.00000000E+00  0.00000000E+00  0.00000000E+00  0.00000000E+00
  2.24299391E+00  2.10833710E+00  0.00000000E+00 -1.36321858E+00  3.51013118E+00
 -7.15849857E-03 -2.34304223E-01 -3.08580871E+00 -1.60242381E-01 -2.17631944E+00
 -2.79289683E+00  1.03154656E+00 -3.81348497E+00 -3.18405376E+00 -2.10421925E+00
 -2.86679864E+00 -5.27054187E+00  6.77958186E-01 -7.76310033E-01 -6.86809417E+00
  2.34773856E-01 -1.68343844E+00 -5.31093794E+00 -1.17949962E-01  9.38364879E-01
Number of symbols in /Mol/                 I                0
Force Field                                I                0
Atom Types                                 C   N=          10
                                                            
                                                            
Int Atom Types                             I   N=          10
           0           0           0           0           0           0
           0           0           0           0
MM charges                                 R   N=          10
  0.00000000E+00  0.00000000E+00  0.00000000E+00  0.00000000E+00  0.00000000E+00
  0.00000000E+00  0.00000000E+00  0.00000000E+00  0.00000000E+00  0.00000000E+00
Integer atomic weights                     I   N=          10
          12          16          16           1          12           1
           1          14           1           1
Real atomic weights                        R   N=          10
  1.20000000E+01  1.59949146E+01  1.59949146E+01  1.00782504E+00  1.20000000E+01
  1.00782504E+00  1.00782504E+00  1.40030740E+01  1.00782504E+00  1.00782504E+00
Atom fragment info                         I   N=          10
           0           0           0           0           0           0
           0           0           0           0
Atom residue num                           I   N=          10
           0           0           0           0           0           0
           0           0           0           0
Nuclear spins                              I   N=          10
           0           0           0           1           0           1
           1           2           1           1
Nuclear ZEff                               R   N=          10
 -3.60000000E+00 -5.60000000E+00 -5.60000000E+00 -1.00000000E+00 -3.60000000E+00
 -1.00000000E+00 -1.00000000E+00 -4.55000000E+00 -1.00000000E+00 -1.00000000E+00
Nuclear ZNuc                               R   N=          10
  6.00000000E+00  8.00000000E+00  8.00000000E+00  1.00000000E+00  6.00000000E+00
  1.00000000E+00  1.00000000E+00  7.00000000E+00  1.00000000E+00  1.00000000E+00
Nuclear QMom                               R   N=          10
  0.00000000E+00  0.00000000E+00  0.00000000E+00  0.00000000E+00  0.00000000E+00
  0.00000000E+00  0.00000000E+00  2.04400000E+00  0.00000000E+00  0.00000000E+00
Nuclear GFac                               R   N=          10
  0.00000000E+00  0.00000000E+00  0.00000000E+00  2.79284600E+00  0.00000000E+00
  2.79284600E+00  2.79284600E+00  4.03761000E-01  2.79284600E+00  2.79284600E+00
MicOpt                                     I   N=          10
          -1          -1          -1          -1          -1          -1
          -1          -1          -1          -1
Number of residues                         I                0
Number of secondary structures             I                0
Number of contracted shells                I               30
Number of primitive shells                 I               75
Pure/Cartesian d shells                    I                1
Pure/Cartesian f shells                    I                0
Highest angular momentum                   I                2
Largest degree of contraction              I                6
Shell types                                I   N=          30
           0          -1          -1           2           0          -1
          -1           2           0          -1          -1           2
           0           0           0          -1          -1           2
           0           0           0           0           0          -1
          -1           2           0           0           0           0
Number of primitives per shell             I   N=          30
           6           3           1           1           6           3
           1           1           6           3           1           1
           3           1           6           3           1           1
           3           1           3           1           6           3
           1           1           3           1           3           1
Shell to atom map                          I   N=          30
           1           1           1           1           2           2
           2           2           3           3           3           3
           4           4           5           5           5           5
           6           6           7           7           8           8
           8           8           9           9          10          10
Primitive exponents                        R   N=          75
  3.04752488E+03  4.57369518E+02  1.03948685E+02  2.92101553E+01  9.28666296E+00
  3.16392696E+00  7.86827235E+00  1.88128854E+00  5.44249258E-01  1.68714478E-01
  8.00000000E-01  5.48467166E+03  8.25234946E+02  1.88046958E+02  5.29645000E+01
  1.68975704E+01  5.79963534E+00  1.55396162E+01  3.59993359E+00  1.01376175E+00
  2.70005823E-01  8.00000000E-01  5.48467166E+03  8.25234946E+02  1.88046958E+02
  5.29645000E+01  1.68975704E+01  5.79963534E+00  1.55396162E+01  3.59993359E+00
  1.01376175E+00  2.70005823E-01  8.00000000E-01  1.87311370E+01  2.82539436E+00
  6.40121692E-01  1.61277759E-01  3.04752488E+03  4.57369518E+02  1.03948685E+02
  2.92101553E+01  9.28666296E+00  3.16392696E+00  7.86827235E+00  1.88128854E+00
  5.44249258E-01  1.68714478E-01  8.00000000E-01  1.87311370E+01  2.82539436E+00
  6.40121692E-01  1.61277759E-01  1.87311370E+01  2.82539436E+00  6.40121692E-01
  1.61277759E-01  4.17351146E+03  6.27457911E+02  1.42902093E+02  4.02343293E+01
  1.28202129E+01  4.39043701E+00  1.16263619E+01  2.71627981E+00  7.72218397E-01
  2.12031498E-01  8.00000000E-01  1.87311370E+01  2.82539436E+00  6.40121692E-01
  1.61277759E-01  1.87311370E+01  2.82539436E+00  6.40121692E-01  1.61277759E-01
Contraction coefficients                   R   N=          75
  1.83473713E-03  1.40373228E-02  6.88426223E-02  2.32184443E-01  4.67941348E-01
  3.62311985E-01 -1.19332420E-01 -1.60854152E-01  1.14345644E+00  1.00000000E+00
  1.00000000E+00  1.83107443E-03  1.39501722E-02  6.84450781E-02  2.32714336E-01
  4.70192898E-01  3.58520853E-01 -1.10777550E-01 -1.48026263E-01  1.13076702E+00
  1.00000000E+00  1.00000000E+00  1.83107443E-03  1.39501722E-02  6.84450781E-02
  2.32714336E-01  4.70192898E-01  3.58520853E-01 -1.10777550E-01 -1.48026263E-01
  1.13076702E+00  1.00000000E+00  1.00000000E+00  3.34946043E-02  2.34726953E-01
  8.13757326E-01  1.00000000E+00  1.83473713E-03  1.40373228E-02  6.88426223E-02
  2.32184443E-01  4.67941348E-01  3.62311985E-01 -1.19332420E-01 -1.60854152E-01
  1.14345644E+00  1.00000000E+00  1.00000000E+00  3.34946043E-02  2.34726953E-01
  8.13757326E-01  1.00000000E+00  3.34946043E-02  2.34726953E-01  8.13757326E-01
  1.00000000E+00  1.83477216E-03  1.39946270E-02  6.85865518E-02  2.32240873E-01
  4.69069948E-01  3.60455199E-01 -1.14961182E-01 -1.69117479E-01  1.14585195E+00
  1.00000000E+00  1.00000000E+00  3.34946043E-02  2.34726953E-01  8.13757326E-01
  1.00000000E+00  3.34946043E-02  2.34726953E-01  8.13757326E-01  1.00000000E+00
P(S=P) Contraction coefficients            R   N=          75
  0.00000000E+00  0.00000000E+00  0.00000000E+00  0.00000000E+00  0.00000000E+00
  0.00000000E+00  6.89990666E-02  3.16423961E-01  7.44308291E-01  1.00000000E+00
  0.00000000E+00  0.00000000E+00  0.00000000E+00  0.00000000E+00  0.00000000E+00
  0.00000000E+00  0.00000000E+00  7.08742682E-02  3.39752839E-01  7.27158577E-01
  1.00000000E+00  0.00000000E+00  0.00000000E+00  0.00000000E+00  0.00000000E+00
  0.00000000E+00  0.00000000E+00  0.00000000E+00  7.08742682E-02  3.39752839E-01
  7.27158577E-01  1.00000000E+00  0.00000000E+00  0.00000000E+00  0.00000000E+00
  0.00000000E+00  0.00000000E+00  0.00000000E+00  0.00000000E+00  0.00000000E+00
  0.00000000E+00  0.00000000E+00  0.00000000E+00  6.89990666E-02  3.16423961E-01
  7.44308291E-01  1.00000000E+00  0.00000000E+00  0.00000000E+00  0.00000000E+00
  0.00000000E+00  0.00000000E+00  0.00000000E+00  0.00000000E+00  0.00000000E+00
  0.00000000E+00  0.00000000E+00  0.00000000E+00  0.00000000E+00  0.00000000E+00
  0.00000000E+00  0.00000000E+00  6.75797439E-02  3.23907296E-01  7.40895140E-01
  1.00000000E+00  0.00000000E+00  0.00000000E+00  0.00000000E+00  0.00000000E+00
  0.00000000E+00  0.00000000E+00  0.00000000E+00  0.00000000E+00  0.00000000E+00
Coordinates of each shell                  R   N=          90
  0.00000000E+00  0.00000000E+00  0.00000000E+00  0.00000000E+00  0.00000000E+00
  0.00000000E+00  0.00000000E+00  0.00000000E+00  0.00000000E+00  0.00000000E+00
  0.00000000E+00  0.00000000E+00  0.00000000E+00  0.00000000E+00  2.24299391E+00
  0.00000000E+00  0.00000000E+00  2.24299391E+00  0.00000000E+00  0.00000000E+00
  2.24299391E+00  0.00000000E+00  0.00000000E+00  2.24299391E+00  2.10833710E+00
  0.00000000E+00 -1.36321858E+00  2.10833710E+00  0.00000000E+00 -1.36321858E+00
  2.10833710E+00  0.00000000E+00 -1.36321858E+00  2.10833710E+00  0.00000000E+00
 -1.36321858E+00  3.51013118E+00 -7.15849857E-03 -2.34304223E-01  3.51013118E+00
 -7.15849857E-03 -2.34304223E-01 -3.08580871E+00 -1.60242381E-01 -2.17631944E+00
 -3.08580871E+00 -1.60242381E-01 -2.17631944E+00 -3.08580871E+00 -1.60242381E-01
 -2.17631944E+00 -3.08580871E+00 -1.60242381E-01 -2.17631944E+00 -2.79289683E+00
  1.03154656E+00 -3.81348497E+00 -2.79289683E+00  1.03154656E+00 -3.81348497E+00
 -3.18405376E+00 -2.10421925E+00 -2.86679864E+00 -3.18405376E+00 -2.10421925E+00
 -2.86679864E+00 -5.27054187E+00  6.77958186E-01 -7.76310033E-01 -5.27054187E+00
  6.77958186E-01 -7.76310033E-01 -5.27054187E+00  6.77958186E-01 -7.76310033E-01
 -5.27054187E+00  6.77958186E-01 -7.76310033E-01 -6.86809417E+00  2.34773856E-01
 -1.68343844E+00 -6.86809417E+00  2.34773856E-01 -1.68343844E+00 -5.31093794E+00
 -1.17949962E-01  9.38364879E-01 -5.31093794E+00 -1.17949962E-01  9.38364879E-01
Num ILSW                                   I              100
ILSW                                       I   N=         100
           1           1           0           0           2           0
           0           0           0           0           0          -1
           5           0           0           0           0           0
           0           0           1           0           0           0
           1           1           0           0           0           0
           0           0      100000           0          -1           0
           0           0           0           0           0           0
           0           0           0           1           0           0
           0 -2000000000           1           0           0           0
           0           0           4          52           0           0
           0           0           0           0           0           0
           0           0           0           0           0           1
           0           0           0           0           0           0
           0           0           0           0           0           0
           0           0           0           0           0           0
           0           0           0           0           0           0
           0           0           0           0
Num RLSW                                   I               52
RLSW                                       R   N=          52
  1.00000000E+00  1.00000000E+00  1.00000000E+00  1.00000000E+00  1.00000000E+00
  0.00000000E+00  0.00000000E+00  1.00000000E+00  0.00000000E+00  0.00000000E+00
  0.00000000E+00  0.00000000E+00  1.00000000E+00  0.00000000E+00  0.00000000E+00
  0.00000000E+00  0.00000000E+00  1.00000000E+00  0.00000000E+00  0.00000000E+00
  0.00000000E+00  0.00000000E+00  1.00000000E+00  0.00000000E+00  0.00000000E+00
  0.00000000E+00  0.00000000E+00  1.00000000E+00  0.00000000E+00  0.00000000E+00
  0.00000000E+00  0.00000000E+00  1.00000000E+00  0.00000000E+00  0.00000000E+00
  0.00000000E+00  0.00000000E+00  0.00000000E+00  1.00000000E+00  1.00000000E+00
  0.00000000E+00  1.00000000E+00  0.00000000E+00  0.00000000E+00  0.00000000E+00
  0.00000000E+00  0.00000000E+00  0.00000000E+00  0.00000000E+00  0.00000000E+00
  0.00000000E+00  0.00000000E+00
MxBond                                     I                3
NBond                                      I   N=          10
           2           1           2           1           3           1
           1           3           1           1
IBond                                      I   N=          30
           2           3           0           1           0           0
           1           4           0           3           0           0
           6           7           8           5           0           0
           5           0           0           5           9          10
           8           0           0           8           0           0
RBond                                      R   N=          30
  2.00000000E+00  1.00000000E+00  0.00000000E+00  2.00000000E+00  0.00000000E+00
  0.00000000E+00  1.00000000E+00  1.00000000E+00  0.00000000E+00  1.00000000E+00
  0.00000000E+00  0.00000000E+00  1.00000000E+00  1.00000000E+00  1.00000000E+00
  1.00000000E+00  0.00000000E+00  0.00000000E+00  1.00000000E+00  0.00000000E+00
  0.00000000E+00  1.00000000E+00  1.00000000E+00  1.00000000E+00  1.00000000E+00
  0.00000000E+00  0.00000000E+00  1.00000000E+00  0.00000000E+00  0.00000000E+00
Virial Ratio                               R      2.003571860723367E+00
SCF Energy                                 R     -2.827588687742161E+02
Total Energy                               R     -2.827588687742161E+02
S**2                                       R     -1.065814103640150E-14
S**2 after annihilation                    R      2.131628207280391E-13
RMS Density                                R      8.574286019985575E-09
Job Status                                 I                1
Nuclear derivative order                   I                0
External E-field                           R   N=          35
  0.00000000E+00  0.00000000E+00  0.00000000E+00  0.00000000E+00  0.00000000E+00
  0.00000000E+00  0.00000000E+00  0.00000000E+00  0.00000000E+00  0.00000000E+00
  0.00000000E+00  0.00000000E+00  0.00000000E+00  0.00000000E+00  0.00000000E+00
  0.00000000E+00  0.00000000E+00  0.00000000E+00  0.00000000E+00  0.00000000E+00
  0.00000000E+00  0.00000000E+00  0.00000000E+00  0.00000000E+00  0.00000000E+00
  0.00000000E+00  0.00000000E+00  0.00000000E+00  0.00000000E+00  0.00000000E+00
  0.00000000E+00  0.00000000E+00  0.00000000E+00  0.00000000E+00  0.00000000E+00
IOpCl                                      I                1
IROHF                                      I                0
Alpha Orbital Energies                     R   N=          85
 -2.06235945E+01 -2.05660124E+01 -1.55541797E+01 -1.14055995E+01 -1.13088559E+01
 -1.47819601E+00 -1.37287243E+00 -1.19285352E+00 -9.08909208E-01 -8.37194171E-01
 -7.05023027E-01 -6.88856287E-01 -6.47921372E-01 -6.43212193E-01 -6.20114083E-01
 -5.79882885E-01 -5.38057429E-01 -4.87365581E-01 -4.15034126E-01 -3.89989282E-01
  1.79908049E-01  1.99889831E-01  2.26772385E-01  2.59172362E-01  2.78397795E-01
  3.20192707E-01  3.21681991E-01  4.20770491E-01  4.87578461E-01  5.23278272E-01
  7.07914753E-01  7.42773951E-01  8.03249512E-01  8.26034722E-01  8.90774566E-01
  9.25915711E-01  9.77603454E-01  9.86233859E-01  1.03715400E+00  1.06329660E+00
  1.09840833E+00  1.11695705E+00  1.14330010E+00  1.19772691E+00  1.20403049E+00
  1.22300566E+00  1.23065217E+00  1.25953879E+00  1.28561317E+00  1.33890091E+00
  1.40125441E+00  1.45750703E+00  1.52982184E+00  1.66677593E+00  1.72101393E+00
  1.73180768E+00  1.75822458E+00  1.85829578E+00  1.88313089E+00  2.01273297E+00
  2.04347919E+00  2.08048261E+00  2.16283610E+00  2.21261632E+00  2.26619262E+00
  2.30499218E+00  2.37191614E+00  2.42974793E+00  2.51625372E+00  2.56947017E+00
  2.68641064E+00  2.70293466E+00  2.71419154E+00  2.84293138E+00  2.95761723E+00
  2.99480782E+00  3.01302882E+00  3.11541902E+00  3.30886959E+00  3.38900802E+00
  4.15040085E+00  4.22696422E+00  4.42590718E+00  4.55867180E+00  4.70553612E+00
Beta Orbital Energies                      R   N=          85
 -2.06235945E+01 -2.05660124E+01 -1.55541797E+01 -1.14055995E+01 -1.13088559E+01
 -1.47819601E+00 -1.37287243E+00 -1.19285352E+00 -9.08909208E-01 -8.37194171E-01
 -7.05023027E-01 -6.88856287E-01 -6.47921372E-01 -6.43212193E-01 -6.20114083E-01
 -5.79882885E-01 -5.38057429E-01 -4.87365581E-01 -4.15034126E-01 -3.89989282E-01
  1.79908049E-01  1.99889831E-01  2.26772385E-01  2.59172362E-01  2.78397795E-01
  3.20192707E-01  3.21681991E-01  4.20770491E-01  4.87578461E-01  5.23278272E-01
  7.07914753E-01  7.42773951E-01  8.03249512E-01  8.26034722E-01  8.90774566E-01
  9.25915711E-01  9.77603454E-01  9.86233859E-01  1.03715400E+00  1.06329660E+00
  1.09840833E+00  1.11695705E+00  1.14330010E+00  1.19772691E+00  1.20403049E+00
  1.22300566E+00  1.23065217E+00  1.25953879E+00  1.28561317E+00  1.33890091E+00
  1.40125441E+00  1.45750703E+00  1.52982184E+00  1.66677593E+00  1.72101393E+00
  1.73180768E+00  1.75822458E+00  1.85829578E+00  1.88313089E+00  2.01273297E+00
  2.04347919E+00  2.08048261E+00  2.16283610E+00  2.21261632E+00  2.26619262E+00
  2.30499218E+00  2.37191614E+00  2.42974793E+00  2.51625372E+00  2.56947017E+00
  2.68641064E+00  2.70293466E+00  2.71419154E+00  2.84293138E+00  2.95761723E+00
  2.99480782E+00  3.01302882E+00  3.11541902E+00  3.30886959E+00  3.38900802E+00
  4.15040085E+00  4.22696422E+00  4.42590718E+00  4.55867180E+00  4.70553612E+00
Alpha MO coefficients                      R   N=        7225
  2.32529871E-06  4.45571876E-04  2.37402766E-04  7.25776171E-07 -1.72090103E-04
 -1.28718089E-04  2.15150377E-05 -8.09045564E-06  6.47079668E-04 -1.33800646E-04
 -5.15379658E-05 -4.78435159E-05  9.19374867E-07  8.27732709E-05  5.81355326E-07
 -3.32994628E-04  5.35031217E-05 -4.26462542E-05 -9.88790744E-07  3.30548195E-05
 -5.33449896E-04 -3.11119230E-05  3.68365372E-06  1.08589380E-04  3.84767112E-05
  9.39804548E-06  1.53632733E-05 -1.33949632E-07  6.64676106E-05 -5.31527638E-07
  9.94601573E-01  2.12141739E-02 -1.08834419E-04 -4.79249163E-06  1.29716576E-03
  4.38438346E-03 -1.67465891E-04  2.80704517E-06 -5.81048829E-04 -4.19396987E-03
 -4.02704439E-03 -4.12194004E-03  1.30494876E-06 -3.54140633E-05  5.34679727E-07
  4.14158563E-04 -2.54839743E-04 -4.00216488E-06 -4.60303714E-05  1.99839650E-05
 -4.61997329E-06  1.58175968E-06  3.49951866E-04 -6.23279405E-05  9.00719677E-05
  1.20848035E-04  2.48174732E-05 -2.91364696E-06  5.07784999E-06 -1.03641558E-05
 -7.65605244E-06  9.90800270E-06  8.95590163E-06 -5.13323980E-05 -3.24607089E-06
  2.64407462E-05  7.97107651E-06  3.54438177E-05  5.31109546E-06 -1.26427170E-07
 -9.40367682E-07 -2.40068548E-04 -1.28730736E-04  3.31167874E-05  5.67682802E-05
  2.17515849E-07  2.22664497E-05  1.43839617E-05  7.80551886E-06  1.10833535E-05
  6.19155296E-08  2.84270225E-06 -1.18348338E-05  1.97796481E-05 -3.92172996E-05
 -5.29577852E-06  4.01449094E-04 -1.64870833E-05  2.00281483E-06 -1.99830104E-04
 -6.53356545E-04 -1.20641197E-04 -9.83887861E-06 -6.39211099E-04 -4.00957352E-05
 -5.47690374E-06 -9.18372842E-04 -2.98495273E-07  2.91346420E-05  7.48525132E-07
  9.94668342E-01  2.10373803E-02  2.23857664E-05 -4.27219513E-06 -1.66923115E-03
  4.86985855E-03  1.65344893E-05  3.92930593E-06 -1.42410679E-04 -3.99819249E-03
 -4.18454458E-03 -3.50407329E-03  3.52576256E-06 -1.06221460E-05  7.99564279E-07
  3.43320840E-04 -4.38506614E-05  4.85635717E-06 -3.06232797E-07 -4.57100283E-05
  1.50328870E-04 -4.24939789E-05  2.53297895E-06  9.73532788E-05  8.07536045E-05
 -7.06473720E-05 -9.25937145E-05 -5.25137221E-07  1.83973865E-05  5.54946185E-07
 -3.54859844E-05 -1.20449308E-05  7.08235049E-06  2.51352561E-05 -3.37824502E-06
  2.53040023E-07 -2.40982773E-06 -1.41905861E-04 -1.30459324E-04  3.42977601E-06
 -2.52361085E-05  2.55019126E-07  1.31777903E-05  6.89026614E-06 -4.45834875E-06
 -1.08358122E-05  1.74388391E-07  1.54813248E-05 -6.80400922E-06  9.86273904E-06
  4.04002240E-06 -1.56134900E-06 -9.18341400E-06  7.70755830E-06  2.55738336E-06
 -3.41177707E-06  4.17929155E-05 -1.87526749E-05 -4.52201063E-06  4.10908387E-05
  2.39409807E-06 -3.00789939E-06 -7.27097021E-06  2.62128811E-06  7.59947735E-06
 -2.57193864E-06 -6.51348522E-06 -1.52217765E-05  1.55320955E-05 -7.20924917E-05
  5.42819054E-06  3.93109769E-05  1.07544176E-06 -7.05166214E-06 -2.16203512E-06
 -3.09094023E-04  2.53247360E-04  5.41942307E-05 -1.30620560E-04 -2.31195808E-05
  1.48282055E-05 -1.40981364E-05 -5.58040338E-06 -1.58082460E-05 -3.76008071E-07
 -7.32827667E-06 -3.79330813E-05 -1.03311949E-06  1.98671589E-06  2.94474373E-06
  2.67919959E-04 -3.86824531E-05 -1.78710343E-05 -9.81301011E-05 -2.79233877E-05
 -1.72189266E-05 -4.79245154E-06 -9.31506488E-07  8.39464511E-06  3.95336109E-06
 -5.21255756E-08  7.52082544E-06  4.11850464E-06  4.17992785E-06  6.84107023E-06
 -8.00923102E-05 -1.56418176E-05 -2.03053523E-05 -3.76271931E-05  5.29347341E-06
 -2.11734218E-06 -5.69769609E-06  3.04985818E-06 -3.94485530E-06 -2.02638773E-06
  1.46442940E-05 -1.09513930E-05 -1.96073888E-05  2.17291010E-04 -1.90640404E-04
  8.59899047E-05  1.00994002E-04  1.59520890E-03 -5.13154364E-04 -1.41706118E-04
  4.11106354E-04 -1.97160687E-04 -1.09717079E-04 -1.43674636E-04  5.45975746E-05
  5.25541934E-05 -1.04903319E-05 -5.29983324E-05 -1.91145753E-05 -1.44802214E-04
 -2.06151129E-04  9.94986826E-01  2.50087470E-02  1.67977779E-05 -1.43762592E-03
 -2.50549409E-04 -2.44332252E-03 -2.50816663E-04  1.09777812E-03  3.25462992E-04
 -3.47842897E-03 -3.24860162E-03 -3.43669289E-03  5.82608896E-05  2.28178352E-05
 -7.73248687E-06  2.87624333E-04  5.61915269E-04  2.77275817E-04  5.43188068E-04
  9.95916729E-01  2.52190091E-02  1.18547013E-03 -7.02080398E-06  3.00100986E-05
 -3.76673855E-03  1.95166066E-03  8.84231239E-05  2.50694361E-03 -1.35090131E-03
 -2.26469849E-03 -5.87911816E-04 -3.30281421E-06 -5.43654374E-04 -4.72958060E-07
 -3.89185424E-04  5.56568476E-04  8.71541429E-05  3.59452078E-06 -3.94552957E-04
 -2.90764858E-03 -5.39074208E-04 -3.55776287E-05  1.56632119E-03  8.07232361E-05
  2.14721448E-04  2.32913811E-04 -2.70061732E-06  6.20879914E-05  8.59593341E-06
 -1.41215546E-04  4.96870676E-04  9.76119807E-06  2.81167375E-06  1.42731438E-04
 -1.32099564E-03  6.31995869E-04 -2.12480542E-05 -1.54845465E-03 -4.72226711E-04
  3.68417506E-04 -1.41288772E-04  4.01019812E-06  4.16955571E-04 -4.81060990E-06
  3.45052349E-04  1.50821094E-04  6.36402307E-04 -2.85651835E-04  8.42153709E-05
 -1.76897032E-05  5.30299259E-05  2.12025581E-03  1.36790895E-03  1.25656572E-04
  6.65370445E-04 -3.82240750E-05 -1.28029715E-04 -1.05243818E-04  2.26284530E-05
  9.00198285E-05 -8.00526627E-06 -1.91586154E-04  1.79739238E-05 -1.84061518E-04
  1.53351977E-04 -8.08891241E-06 -2.74631323E-05 -9.04752752E-05 -7.01268628E-06
 -4.11001426E-06 -6.47166219E-05  1.53542881E-04 -9.81341573E-06 -1.10480934E-04
 -4.47633340E-05 -6.10710522E-05  1.01807104E-05 -2.31514205E-05 -1.30316074E-05
  2.78212708E-05  2.81372736E-05  2.03676380E-04 -5.63771860E-05  1.71103217E-04
 -8.74815901E-04 -3.73920774E-04 -1.27592358E-04 -1.46389900E-05 -4.27904638E-05
  2.03936150E-03 -2.38857691E-03  1.32362877E-06 -1.19802031E-03 -3.25472377E-05
 -1.97879334E-04 -6.96958011E-05  9.20768768E-06  6.20101236E-05  1.16987847E-06
 -2.19450974E-05 -9.43215665E-05 -1.87113258E-05  8.95156057E-06  2.74879838E-05
  5.13929044E-04  6.04772488E-04 -2.30099866E-05 -5.44233459E-05 -7.39860485E-05
 -1.07855049E-04 -6.76444305E-05  5.03148295E-06 -1.22308689E-04  3.61074741E-06
 -3.38475949E-05 -1.70600443E-04  7.88351589E-05  4.84267104E-06 -1.92390140E-05
  7.31231224E-04 -1.21990559E-04 -1.78269432E-05  3.97581741E-04 -1.50857149E-04
 -1.74022554E-04 -2.47214568E-05  7.94642252E-06 -4.46256364E-05  2.90355489E-06
 -2.68272284E-05  2.58995627E-04  9.96005119E-01  2.70740317E-02 -3.62076444E-05
  1.12820487E-04  3.97115782E-04 -1.46154742E-02 -3.15515669E-04 -2.13471726E-04
 -6.96337228E-04 -1.64555490E-03 -1.23703481E-03 -1.48913411E-03 -5.24509481E-05
 -3.99442130E-04 -5.15208980E-05  1.59748395E-04  2.66413188E-03  1.60943531E-04
  2.59015177E-03 -2.48935727E-04 -4.07148268E-05 -4.60879512E-05 -5.23613317E-06
  3.70633183E-05  3.19437089E-03  1.06323103E-03 -3.24404108E-04 -5.57803069E-04
 -4.72054518E-04 -1.85068909E-04 -2.91589284E-04  1.37807064E-04  2.51399457E-04
 -8.72257221E-05 -6.37624018E-05  1.40117801E-04 -9.00508343E-05  2.40808329E-04
 -1.13723154E-01  2.20298143E-01  9.11431173E-02 -1.30687236E-04  5.36250646E-02
  4.16414172E-02 -1.72169075E-02 -5.17176734E-04 -9.62572934E-03  3.24991001E-03
 -1.99228136E-02  1.54167122E-02  5.37413437E-05 -1.42377731E-02  2.28671465E-05
 -1.09085064E-01  2.40878243E-01  1.32647444E-02 -2.79310304E-04 -9.28970271E-02
  2.03570157E-01  1.14882429E-02 -2.26430950E-04 -3.18164100E-02 -1.59071226E-03
 -3.61678883E-04  1.26279449E-02  3.91669151E-05 -3.06942293E-03  3.92203596E-05
 -1.58736553E-01  3.59968972E-01 -2.99301811E-02 -4.08598779E-04  8.68907368E-02
  3.21458576E-01 -1.18801936E-02 -2.46680873E-04  4.74706320E-02  1.74502980E-02
 -3.23270487E-04  1.50912837E-02 -5.17153195E-05 -2.00659547E-04 -6.64985921E-05
  8.90392103E-02 -5.79938349E-03 -4.70728742E-03  7.26066668E-03  5.06110866E-03
  5.04607043E-04  3.97243367E-03  4.76036384E-03 -7.58490801E-04  2.48185983E-04
  2.02977322E-04  1.97970780E-03 -3.30794977E-04  7.63325050E-04  4.37469687E-05
  1.41008989E-03  1.48777991E-04  1.90472685E-03 -6.92769861E-04  1.74497087E-03
 -6.53869973E-04 -1.45149617E-03  3.97787156E-03  1.94203347E-03 -7.62248173E-04
 -5.15933936E-05 -1.70389551E-04 -2.75746627E-03  2.83278957E-05 -3.62171283E-04
  5.47021799E-04  4.75618713E-04  4.03658041E-04 -9.42341195E-06  7.28909154E-05
  5.36418740E-05  2.30522219E-04 -1.14256871E-03  1.70312609E-03 -4.29462835E-04
 -4.84613619E-02  9.50768570E-02 -7.40599325E-02 -1.00352562E-05  2.19552629E-01
  2.12706001E-02  1.01140627E-03 -4.67405620E-04 -2.36685435E-02 -2.99830511E-02
 -8.21524790E-03  2.91004079E-02  2.18478064E-05  1.56278574E-02 -2.15816916E-05
 -1.67001092E-01  3.63454455E-01 -7.67624150E-03 -3.98819700E-04 -1.09269225E-01
  3.45023691E-01 -2.57478564E-03 -4.43657009E-04 -4.09937001E-02 -2.45056987E-03
 -3.43246959E-03  1.30861334E-02  1.00935717E-04  1.31527828E-03  4.00640613E-05
  1.31862173E-01 -2.97650013E-01 -3.70515276E-03  3.16728793E-04 -4.07279209E-02
 -2.92267394E-01 -3.16310991E-03  4.32813342E-04 -1.83098905E-02 -1.13497623E-02
  4.85648532E-04 -5.84403863E-03  2.91488152E-05 -8.05745139E-03  6.50005255E-05
 -7.80191138E-02  6.93339027E-03 -1.78831397E-03  3.41644708E-03 -9.53470785E-05
  4.19688710E-04  3.13953753E-03 -5.70717878E-05 -1.02842746E-02 -1.10916127E-03
  5.13532654E-03 -1.04571143E-04 -2.86835637E-04  1.17413528E-03 -2.96485683E-04
  4.41972887E-04  3.77598858E-04  1.15590155E-03  7.73212602E-04  8.92697346E-04
 -1.42354279E-03 -2.22821384E-03  5.42573260E-03  1.10417601E-03 -1.17188371E-03
  8.78245099E-05 -3.69346126E-03  9.82983979E-04  2.04183676E-03  2.64772777E-03
  4.16973039E-04  4.49669472E-05  3.45274526E-04 -8.71217700E-05  6.06466516E-05
 -2.46315878E-04  1.74997506E-03  5.91961350E-04  1.64173226E-03  2.07685298E-03
 -4.03617871E-03  6.93543900E-03 -1.59223053E-02  4.58474213E-05 -1.66900046E-02
  1.47423775E-02 -5.35238653E-03 -5.08723313E-05 -4.63299467E-03  2.96519243E-03
 -3.11103935E-04 -5.99394666E-04  1.19240820E-05  1.85689068E-03  2.22091492E-05
  7.65908941E-03 -1.71817879E-02 -4.90245230E-03  1.07699712E-04  2.77920186E-03
 -1.71381156E-02 -2.02502180E-03  1.35318293E-04  1.90475983E-03  1.25774412E-04
  8.47854092E-05 -7.76862773E-04 -3.14997751E-05  6.51954302E-04 -2.66666062E-05
  2.30904386E-03 -3.92014196E-03 -4.77580685E-03 -3.53333216E-05 -3.67018073E-03