ground state                                                            
SP        UHF                                                         6-31G(d)            
Number of atoms                            I               10
Info1-9                                    I   N=           9
          44          44           0           0           0         110
           1           1           2
Full Title                                 C   N=           1
ground state
Route                                      C   N=           2
# UHF/6-31G(d) Nosymm   
Charge                                     I                0
Multiplicity                               I                1
Number of electrons                        I               40
Number of alpha electrons                  I               20
Number of beta electrons                   I               20
Number of basis functions                  I               85
Number of independent functions            I               85
Number of point charges in /Mol/           I                0
Number of translation vectors              I                0
Atomic numbers                             I   N=          10
           6           8           8           1           6           1
           1           7           1           1
Nuclear charges                            R   N=          10
  6.00000000E+00  8.00000000E+00  8.00000000E+00  1.00000000E+00  6.00000000E+00
  1.00000000E+00  1.00000000E+00  7.00000000E+00  1.00000000E+00  1.00000000E+00
Current cartesian coordinates              R   N=          30
  0.00000000E+00  0.00000000E+00  0.00000000E+00  0.00000000E+00  0.00000000E+00
  2.24299391E+00  2.10833710E+00  0.00000000E+00 -1.36321858E+00  3.51013118E+00
 -7.15849857E-03 -2.34304223E-01 -3.85726089E+00 -2.00302976E-01 -2.72039930E+00
 -3.56434901E+00  9.91485963E-01 -4.35756483E+00 -3.95550594E+00 -2.14427985E+00
 -3.41087850E+00 -6.04199404E+00  6.37897591E-01 -1.32038989E+00 -7.63954634E+00
  1.94713261E-01 -2.22751830E+00 -6.08239012E+00 -1.58010558E-01  3.94285020E-01
Number of symbols in /Mol/                 I                0
Force Field                                I                0
Atom Types                                 C   N=          10
                                                            
                                                            
Int Atom Types                             I   N=          10
           0           0           0           0           0           0
           0           0           0           0
MM charges                                 R   N=          10
  0.00000000E+00  0.00000000E+00  0.00000000E+00  0.00000000E+00  0.00000000E+00
  0.00000000E+00  0.00000000E+00  0.00000000E+00  0.00000000E+00  0.00000000E+00
Integer atomic weights                     I   N=          10
          12          16          16           1          12           1
           1          14           1           1
Real atomic weights                        R   N=          10
  1.20000000E+01  1.59949146E+01  1.59949146E+01  1.00782504E+00  1.20000000E+01
  1.00782504E+00  1.00782504E+00  1.40030740E+01  1.00782504E+00  1.00782504E+00
Atom fragment info                         I   N=          10
           0           0           0           0           0           0
           0           0           0           0
Atom residue num                           I   N=          10
           0           0           0           0           0           0
           0           0           0           0
Nuclear spins                              I   N=          10
           0           0           0           1           0           1
           1           2           1           1
Nuclear ZEff                               R   N=          10
 -3.60000000E+00 -5.60000000E+00 -5.60000000E+00 -1.00000000E+00 -3.60000000E+00
 -1.00000000E+00 -1.00000000E+00 -4.55000000E+00 -1.00000000E+00 -1.00000000E+00
Nuclear ZNuc                               R   N=          10
  6.00000000E+00  8.00000000E+00  8.00000000E+00  1.00000000E+00  6.00000000E+00
  1.00000000E+00  1.00000000E+00  7.00000000E+00  1.00000000E+00  1.00000000E+00
Nuclear QMom                               R   N=          10
  0.00000000E+00  0.00000000E+00  0.00000000E+00  0.00000000E+00  0.00000000E+00
  0.00000000E+00  0.00000000E+00  2.04400000E+00  0.00000000E+00  0.00000000E+00
Nuclear GFac                               R   N=          10
  0.00000000E+00  0.00000000E+00  0.00000000E+00  2.79284600E+00  0.00000000E+00
  2.79284600E+00  2.79284600E+00  4.03761000E-01  2.79284600E+00  2.79284600E+00
MicOpt                                     I   N=          10
          -1          -1          -1          -1          -1          -1
          -1          -1          -1          -1
Number of residues                         I                0
Number of secondary structures             I                0
Number of contracted shells                I               30
Number of primitive shells                 I               75
Pure/Cartesian d shells                    I                1
Pure/Cartesian f shells                    I                0
Highest angular momentum                   I                2
Largest degree of contraction              I                6
Shell types                                I   N=          30
           0          -1          -1           2           0          -1
          -1           2           0          -1          -1           2
           0           0           0          -1          -1           2
           0           0           0           0           0          -1
          -1           2           0           0           0           0
Number of primitives per shell             I   N=          30
           6           3           1           1           6           3
           1           1           6           3           1           1
           3           1           6           3           1           1
           3           1           3           1           6           3
           1           1           3           1           3           1
Shell to atom map                          I   N=          30
           1           1           1           1           2           2
           2           2           3           3           3           3
           4           4           5           5           5           5
           6           6           7           7           8           8
           8           8           9           9          10          10
Primitive exponents                        R   N=          75
  3.04752488E+03  4.57369518E+02  1.03948685E+02  2.92101553E+01  9.28666296E+00
  3.16392696E+00  7.86827235E+00  1.88128854E+00  5.44249258E-01  1.68714478E-01
  8.00000000E-01  5.48467166E+03  8.25234946E+02  1.88046958E+02  5.29645000E+01
  1.68975704E+01  5.79963534E+00  1.55396162E+01  3.59993359E+00  1.01376175E+00
  2.70005823E-01  8.00000000E-01  5.48467166E+03  8.25234946E+02  1.88046958E+02
  5.29645000E+01  1.68975704E+01  5.79963534E+00  1.55396162E+01  3.59993359E+00
  1.01376175E+00  2.70005823E-01  8.00000000E-01  1.87311370E+01  2.82539436E+00
  6.40121692E-01  1.61277759E-01  3.04752488E+03  4.57369518E+02  1.03948685E+02
  2.92101553E+01  9.28666296E+00  3.16392696E+00  7.86827235E+00  1.88128854E+00
  5.44249258E-01  1.68714478E-01  8.00000000E-01  1.87311370E+01  2.82539436E+00
  6.40121692E-01  1.61277759E-01  1.87311370E+01  2.82539436E+00  6.40121692E-01
  1.61277759E-01  4.17351146E+03  6.27457911E+02  1.42902093E+02  4.02343293E+01
  1.28202129E+01  4.39043701E+00  1.16263619E+01  2.71627981E+00  7.72218397E-01
  2.12031498E-01  8.00000000E-01  1.87311370E+01  2.82539436E+00  6.40121692E-01
  1.61277759E-01  1.87311370E+01  2.82539436E+00  6.40121692E-01  1.61277759E-01
Contraction coefficients                   R   N=          75
  1.83473713E-03  1.40373228E-02  6.88426223E-02  2.32184443E-01  4.67941348E-01
  3.62311985E-01 -1.19332420E-01 -1.60854152E-01  1.14345644E+00  1.00000000E+00
  1.00000000E+00  1.83107443E-03  1.39501722E-02  6.84450781E-02  2.32714336E-01
  4.70192898E-01  3.58520853E-01 -1.10777550E-01 -1.48026263E-01  1.13076702E+00
  1.00000000E+00  1.00000000E+00  1.83107443E-03  1.39501722E-02  6.84450781E-02
  2.32714336E-01  4.70192898E-01  3.58520853E-01 -1.10777550E-01 -1.48026263E-01
  1.13076702E+00  1.00000000E+00  1.00000000E+00  3.34946043E-02  2.34726953E-01
  8.13757326E-01  1.00000000E+00  1.83473713E-03  1.40373228E-02  6.88426223E-02
  2.32184443E-01  4.67941348E-01  3.62311985E-01 -1.19332420E-01 -1.60854152E-01
  1.14345644E+00  1.00000000E+00  1.00000000E+00  3.34946043E-02  2.34726953E-01
  8.13757326E-01  1.00000000E+00  3.34946043E-02  2.34726953E-01  8.13757326E-01
  1.00000000E+00  1.83477216E-03  1.39946270E-02  6.85865518E-02  2.32240873E-01
  4.69069948E-01  3.60455199E-01 -1.14961182E-01 -1.69117479E-01  1.14585195E+00
  1.00000000E+00  1.00000000E+00  3.34946043E-02  2.34726953E-01  8.13757326E-01
  1.00000000E+00  3.34946043E-02  2.34726953E-01  8.13757326E-01  1.00000000E+00
P(S=P) Contraction coefficients            R   N=          75
  0.00000000E+00  0.00000000E+00  0.00000000E+00  0.00000000E+00  0.00000000E+00
  0.00000000E+00  6.89990666E-02  3.16423961E-01  7.44308291E-01  1.00000000E+00
  0.00000000E+00  0.00000000E+00  0.00000000E+00  0.00000000E+00  0.00000000E+00
  0.00000000E+00  0.00000000E+00  7.08742682E-02  3.39752839E-01  7.27158577E-01
  1.00000000E+00  0.00000000E+00  0.00000000E+00  0.00000000E+00  0.00000000E+00
  0.00000000E+00  0.00000000E+00  0.00000000E+00  7.08742682E-02  3.39752839E-01
  7.27158577E-01  1.00000000E+00  0.00000000E+00  0.00000000E+00  0.00000000E+00
  0.00000000E+00  0.00000000E+00  0.00000000E+00  0.00000000E+00  0.00000000E+00
  0.00000000E+00  0.00000000E+00  0.00000000E+00  6.89990666E-02  3.16423961E-01
  7.44308291E-01  1.00000000E+00  0.00000000E+00  0.00000000E+00  0.00000000E+00
  0.00000000E+00  0.00000000E+00  0.00000000E+00  0.00000000E+00  0.00000000E+00
  0.00000000E+00  0.00000000E+00  0.00000000E+00  0.00000000E+00  0.00000000E+00
  0.00000000E+00  0.00000000E+00  6.75797439E-02  3.23907296E-01  7.40895140E-01
  1.00000000E+00  0.00000000E+00  0.00000000E+00  0.00000000E+00  0.00000000E+00
  0.00000000E+00  0.00000000E+00  0.00000000E+00  0.00000000E+00  0.00000000E+00
Coordinates of each shell                  R   N=          90
  0.00000000E+00  0.00000000E+00  0.00000000E+00  0.00000000E+00  0.00000000E+00
  0.00000000E+00  0.00000000E+00  0.00000000E+00  0.00000000E+00  0.00000000E+00
  0.00000000E+00  0.00000000E+00  0.00000000E+00  0.00000000E+00  2.24299391E+00
  0.00000000E+00  0.00000000E+00  2.24299391E+00  0.00000000E+00  0.00000000E+00
  2.24299391E+00  0.00000000E+00  0.00000000E+00  2.24299391E+00  2.10833710E+00
  0.00000000E+00 -1.36321858E+00  2.10833710E+00  0.00000000E+00 -1.36321858E+00
  2.10833710E+00  0.00000000E+00 -1.36321858E+00  2.10833710E+00  0.00000000E+00
 -1.36321858E+00  3.51013118E+00 -7.15849857E-03 -2.34304223E-01  3.51013118E+00
 -7.15849857E-03 -2.34304223E-01 -3.85726089E+00 -2.00302976E-01 -2.72039930E+00
 -3.85726089E+00 -2.00302976E-01 -2.72039930E+00 -3.85726089E+00 -2.00302976E-01
 -2.72039930E+00 -3.85726089E+00 -2.00302976E-01 -2.72039930E+00 -3.56434901E+00
  9.91485963E-01 -4.35756483E+00 -3.56434901E+00  9.91485963E-01 -4.35756483E+00
 -3.95550594E+00 -2.14427985E+00 -3.41087850E+00 -3.95550594E+00 -2.14427985E+00
 -3.41087850E+00 -6.04199404E+00  6.37897591E-01 -1.32038989E+00 -6.04199404E+00
  6.37897591E-01 -1.32038989E+00 -6.04199404E+00  6.37897591E-01 -1.32038989E+00
 -6.04199404E+00  6.37897591E-01 -1.32038989E+00 -7.63954634E+00  1.94713261E-01
 -2.22751830E+00 -7.63954634E+00  1.94713261E-01 -2.22751830E+00 -6.08239012E+00
 -1.58010558E-01  3.94285020E-01 -6.08239012E+00 -1.58010558E-01  3.94285020E-01
Num ILSW                                   I              100
ILSW                                       I   N=         100
           1           1           0           0           2           0
           0           0           0           0           0          -1
           5           0           0           0           0           0
           0           0           1           0           0           0
           1           1           0           0           0           0
           0           0      100000           0          -1           0
           0           0           0           0           0           0
           0           0           0           1           0           0
           0 -2000000000           1           0           0           0
           0           0           4          52           0           0
           0           0           0           0           0           0
           0           0           0           0           0           1
           0           0           0           0           0           0
           0           0           0           0           0           0
           0           0           0           0           0           0
           0           0           0           0           0           0
           0           0           0           0
Num RLSW                                   I               52
RLSW                                       R   N=          52
  1.00000000E+00  1.00000000E+00  1.00000000E+00  1.00000000E+00  1.00000000E+00
  0.00000000E+00  0.00000000E+00  1.00000000E+00  0.00000000E+00  0.00000000E+00
  0.00000000E+00  0.00000000E+00  1.00000000E+00  0.00000000E+00  0.00000000E+00
  0.00000000E+00  0.00000000E+00  1.00000000E+00  0.00000000E+00  0.00000000E+00
  0.00000000E+00  0.00000000E+00  1.00000000E+00  0.00000000E+00  0.00000000E+00
  0.00000000E+00  0.00000000E+00  1.00000000E+00  0.00000000E+00  0.00000000E+00
  0.00000000E+00  0.00000000E+00  1.00000000E+00  0.00000000E+00  0.00000000E+00
  0.00000000E+00  0.00000000E+00  0.00000000E+00  1.00000000E+00  1.00000000E+00
  0.00000000E+00  1.00000000E+00  0.00000000E+00  0.00000000E+00  0.00000000E+00
  0.00000000E+00  0.00000000E+00  0.00000000E+00  0.00000000E+00  0.00000000E+00
  0.00000000E+00  0.00000000E+00
MxBond                                     I                3
NBond                                      I   N=          10
           2           1           2           1           3           1
           1           3           1           1
IBond                                      I   N=          30
           2           3           0           1           0           0
           1           4           0           3           0           0
           6           7           8           5           0           0
           5           0           0           5           9          10
           8           0           0           8           0           0
RBond                                      R   N=          30
  2.00000000E+00  1.00000000E+00  0.00000000E+00  2.00000000E+00  0.00000000E+00
  0.00000000E+00  1.00000000E+00  1.00000000E+00  0.00000000E+00  1.00000000E+00
  0.00000000E+00  0.00000000E+00  1.00000000E+00  1.00000000E+00  1.00000000E+00
  1.00000000E+00  0.00000000E+00  0.00000000E+00  1.00000000E+00  0.00000000E+00
  0.00000000E+00  1.00000000E+00  1.00000000E+00  1.00000000E+00  1.00000000E+00
  0.00000000E+00  0.00000000E+00  1.00000000E+00  0.00000000E+00  0.00000000E+00
Virial Ratio                               R      2.003726385114730E+00
SCF Energy                                 R     -2.826719961670032E+02
Total Energy                               R     -2.826719961670032E+02
S**2                                       R      7.105427357601002E-15
S**2 after annihilation                    R      7.105427357601052E-15
RMS Density                                R      7.372834205221773E-09
Job Status                                 I                1
Nuclear derivative order                   I                0
External E-field                           R   N=          35
  0.00000000E+00  0.00000000E+00  0.00000000E+00  0.00000000E+00  0.00000000E+00
  0.00000000E+00  0.00000000E+00  0.00000000E+00  0.00000000E+00  0.00000000E+00
  0.00000000E+00  0.00000000E+00  0.00000000E+00  0.00000000E+00  0.00000000E+00
  0.00000000E+00  0.00000000E+00  0.00000000E+00  0.00000000E+00  0.00000000E+00
  0.00000000E+00  0.00000000E+00  0.00000000E+00  0.00000000E+00  0.00000000E+00
  0.00000000E+00  0.00000000E+00  0.00000000E+00  0.00000000E+00  0.00000000E+00
  0.00000000E+00  0.00000000E+00  0.00000000E+00  0.00000000E+00  0.00000000E+00
IOpCl                                      I                1
IROHF                                      I                0
Alpha Orbital Energies                     R   N=          85
 -2.06205809E+01 -2.05667459E+01 -1.55650856E+01 -1.14022898E+01 -1.13343822E+01
 -1.47288296E+00 -1.36846541E+00 -1.20185945E+00 -8.97911373E-01 -8.36896521E-01
 -7.00857600E-01 -6.80970994E-01 -6.49471276E-01 -6.41754655E-01 -6.24627442E-01
 -5.90904444E-01 -5.23519363E-01 -4.85132700E-01 -4.15129120E-01 -3.37568394E-01
  7.16786604E-02  2.08419234E-01  2.18685340E-01  2.49159970E-01  2.71753698E-01
  3.10467684E-01  3.14908756E-01  4.10990882E-01  4.89535071E-01  5.16690614E-01
  6.90562627E-01  7.43878869E-01  8.12227001E-01  8.43295641E-01  8.60658649E-01
  8.69133121E-01  9.73016898E-01  9.78789252E-01  1.01269913E+00  1.05025663E+00
  1.06757381E+00  1.10826989E+00  1.11903128E+00  1.16768193E+00  1.18908753E+00
  1.19911148E+00  1.21367585E+00  1.23176057E+00  1.28752880E+00  1.31684547E+00
  1.37069469E+00  1.40205718E+00  1.54117885E+00  1.67107496E+00  1.69207456E+00
  1.73182029E+00  1.77060387E+00  1.79292787E+00  1.87338736E+00  1.88127203E+00
  2.04401255E+00  2.08491958E+00  2.15449360E+00  2.16980728E+00  2.21881873E+00
  2.24454677E+00  2.35981787E+00  2.42081995E+00  2.47623111E+00  2.55421230E+00
  2.67864205E+00  2.70293837E+00  2.70699827E+00  2.82371945E+00  2.92516402E+00
  2.99252873E+00  3.00224868E+00  3.11024751E+00  3.29607235E+00  3.38639812E+00
  4.15700483E+00  4.18631468E+00  4.31097093E+00  4.53312665E+00  4.63859385E+00
Beta Orbital Energies                      R   N=          85
 -2.06205809E+01 -2.05667459E+01 -1.55650856E+01 -1.14022898E+01 -1.13343822E+01
 -1.47288296E+00 -1.36846541E+00 -1.20185945E+00 -8.97911373E-01 -8.36896521E-01
 -7.00857600E-01 -6.80970994E-01 -6.49471276E-01 -6.41754655E-01 -6.24627442E-01
 -5.90904444E-01 -5.23519363E-01 -4.85132700E-01 -4.15129120E-01 -3.37568394E-01
  7.16786604E-02  2.08419234E-01  2.18685340E-01  2.49159970E-01  2.71753698E-01
  3.10467684E-01  3.14908756E-01  4.10990882E-01  4.89535071E-01  5.16690614E-01
  6.90562627E-01  7.43878869E-01  8.12227001E-01  8.43295641E-01  8.60658649E-01
  8.69133121E-01  9.73016898E-01  9.78789252E-01  1.01269913E+00  1.05025663E+00
  1.06757381E+00  1.10826989E+00  1.11903128E+00  1.16768193E+00  1.18908753E+00
  1.19911148E+00  1.21367585E+00  1.23176057E+00  1.28752880E+00  1.31684547E+00
  1.37069469E+00  1.40205718E+00  1.54117885E+00  1.67107496E+00  1.69207456E+00
  1.73182029E+00  1.77060387E+00  1.79292787E+00  1.87338736E+00  1.88127203E+00
  2.04401255E+00  2.08491958E+00  2.15449360E+00  2.16980728E+00  2.21881873E+00
  2.24454677E+00  2.35981787E+00  2.42081995E+00  2.47623111E+00  2.55421230E+00
  2.67864205E+00  2.70293837E+00  2.70699827E+00  2.82371945E+00  2.92516402E+00
  2.99252873E+00  3.00224868E+00  3.11024751E+00  3.29607235E+00  3.38639812E+00
  4.15700483E+00  4.18631468E+00  4.31097093E+00  4.53312665E+00  4.63859385E+00
Alpha MO coefficients                      R   N=        7225
  5.06522851E-07  4.39685109E-04  2.36082999E-04  4.36381820E-07 -1.73668094E-04
 -5.03039367E-05 -2.52906941E-05 -6.86369059E-07  6.17426881E-04 -1.32363405E-04
 -5.66087000E-05 -4.62120963E-05  1.98001307E-07  8.69579275E-05 -2.14224606E-07
 -3.62483784E-04  5.44296223E-05 -4.48673970E-05 -1.86568266E-07  3.35188166E-05
 -5.44298358E-04 -1.40359620E-05  3.47205099E-07  1.14625674E-04  4.16844933E-05
  1.16006085E-05  1.62426560E-05 -4.99674917E-08  6.33020214E-05 -7.27360226E-08
  9.94609631E-01  2.12052257E-02 -1.19486827E-04 -2.19294412E-06  1.30803920E-03
  4.33514701E-03 -1.37636184E-04  6.10496331E-07 -5.76492460E-04 -4.18966238E-03
 -4.00927886E-03 -4.10143864E-03  1.48993994E-06 -3.44620622E-05  1.87273100E-07
  4.09089229E-04 -2.51975739E-04 -7.53672314E-06 -4.94713979E-05 -2.12575800E-06
 -2.44452851E-06 -1.67369029E-06  2.50328803E-04 -7.32305386E-06  4.89465373E-05
  6.45489777E-05  1.32406250E-05 -1.40397241E-05 -8.28437532E-06 -4.67242084E-06
 -2.95838973E-07  4.38729144E-06 -4.78505281E-06 -3.71378643E-05 -8.27507200E-06
  3.99663392E-06  5.29894538E-06  2.05947715E-05  7.62725288E-06  5.09563306E-07
 -3.73287004E-07 -1.38639360E-04 -8.92520905E-05  1.63939062E-05  2.80026240E-05
  3.94401444E-06  1.54742912E-05  1.03408030E-05  4.64522361E-06  7.66797965E-06
  1.51282414E-06 -3.23079013E-06 -9.69847433E-06  1.68683695E-05 -2.78178164E-05
 -1.42306675E-07  4.15898337E-04 -2.47051367E-05  1.36160259E-06 -2.00864939E-04
 -7.03264127E-04 -5.53945527E-05 -3.85895362E-06 -5.43012804E-04 -2.90201143E-05
  4.38577804E-06 -9.02837812E-04 -6.33502403E-07  2.57927246E-05  2.59881332E-07
  9.94679044E-01  2.10275723E-02  2.34514298E-05 -1.66296052E-06 -1.65400707E-03
  4.76223963E-03  4.32462481E-06  1.50518454E-06 -1.24756807E-04 -3.99692584E-03
 -4.15140970E-03 -3.48794247E-03  2.90752278E-06 -1.87383190E-05  8.92201305E-07
  3.73411891E-04 -4.32828931E-05  5.09736008E-06 -1.39782728E-07 -4.49365333E-05
  1.60222143E-04 -5.05379044E-05  1.12013223E-06  8.08487634E-05  8.13952874E-05
 -6.84099869E-05 -9.75666614E-05 -3.39556400E-07  2.13737772E-05  2.14875791E-07
 -3.32800341E-05 -2.11535528E-05  5.79006926E-06  1.30796451E-05  8.10512475E-06
  6.58222447E-07 -1.64810866E-06 -8.97886455E-05 -8.00498765E-05 -4.43713807E-06
 -7.81421470E-06  6.55442447E-06  1.27695588E-05  1.24220493E-05 -3.61370059E-06
 -5.61974532E-06  1.07097148E-06  1.12628137E-05  1.08648440E-05  5.25959961E-06
  8.23626798E-06 -2.60135845E-06 -5.26414394E-06 -1.71982687E-06  1.49944166E-06
 -4.54439631E-06  3.34418355E-05  1.13105755E-05 -3.05611982E-07  3.58972516E-05
 -6.46049506E-06 -8.14726996E-06 -7.76802167E-06  4.65150825E-07  2.04606376E-06
 -3.65389923E-06  3.74581801E-06 -1.92277157E-06  1.97022080E-06 -3.80423573E-05
  5.75161648E-06  5.17625291E-06 -1.55517335E-05 -6.28939979E-06 -1.30604051E-05
 -1.02857754E-04  2.54499204E-04  2.95047349E-05 -1.49391234E-04  2.19240144E-05
  1.88405173E-05  6.45055443E-06 -8.35147881E-07 -6.63032257E-06  5.88434365E-07
 -8.94883463E-06 -4.00626115E-05  5.14242784E-06  1.90721769E-06  5.21087891E-06
  2.44104132E-04 -7.02884688E-05 -1.19018541E-05 -7.48064832E-05 -2.64841587E-05
 -2.67163376E-05 -1.72038485E-05 -2.17909008E-07  1.48337885E-05  2.55798162E-06
  6.92679489E-06  3.78718656E-05  3.45128397E-07  2.52036301E-06  5.93162404E-06
 -2.33233018E-04  4.43314609E-05 -1.18078512E-05 -6.03528531E-05  1.60559719E-05
  2.17122464E-05  1.19025282E-05  2.08646922E-06  4.80785011E-06 -1.18336382E-06
  1.61213672E-05 -1.44769052E-05 -1.14909672E-05  2.57770081E-04 -1.87009993E-04
  8.27814556E-05  1.10655846E-04  1.39804212E-03 -5.20324106E-04 -1.19231917E-04
  3.09349121E-04 -1.96228587E-04 -9.39234269E-05 -1.40190775E-04  5.91716020E-05
  4.62722265E-05 -1.40691847E-05 -5.61158236E-05 -2.86737605E-05 -1.34618317E-04
 -1.83214476E-04  9.94984261E-01  2.49966831E-02  3.37909253E-05 -1.43579874E-03
 -2.61549143E-04 -2.33256503E-03 -2.36092856E-04  1.06594127E-03  3.19006311E-04
 -3.48932647E-03 -3.25024247E-03 -3.44191318E-03  5.17860213E-05  1.97361231E-05
 -8.40528703E-06  2.81122105E-04  5.47213660E-04  2.73013081E-04  5.30930928E-04
  9.95905686E-01  2.47537759E-02  1.31318871E-03  6.49320132E-07  1.31613035E-04
 -3.07834356E-03  9.26330715E-04  4.43465819E-05  1.48053572E-03 -1.36513285E-03
 -2.32626499E-03 -6.01764524E-04 -3.58625611E-07 -5.63531497E-04  1.52506446E-06
 -4.21984460E-04  4.26716266E-04  7.49777259E-05  1.45791301E-06 -3.89937790E-04
 -2.04928317E-03 -2.53112057E-04 -2.06043718E-05  1.38925744E-03  1.05292315E-07
  1.14978952E-04  1.64879458E-04 -1.40562938E-06 -3.80834875E-06  6.20185269E-06
 -1.47365368E-04  4.63848029E-04  1.95255039E-05  2.58829376E-06  1.23117438E-04
 -1.22566888E-03  7.14531193E-04 -1.45573415E-05 -1.30809130E-03 -5.25289484E-04
  3.27680507E-04 -9.88892168E-05  3.82710211E-06  3.96103947E-04 -2.31656190E-06
  3.00953739E-04  2.64028871E-04  2.91708489E-04 -3.38437335E-04 -7.38104574E-05
 -1.19276229E-05 -2.55467267E-05  1.48815188E-03  7.48380925E-04  9.75819079E-05
  4.90068827E-04 -4.78419607E-05 -1.85136350E-04 -9.38632359E-05  1.86210495E-05
  1.25035598E-04  1.18827835E-05 -9.58004055E-05 -9.90209450E-05 -9.79836483E-05
 -3.08516963E-05  1.59372423E-05  5.62489984E-05 -2.21030527E-05 -1.23095069E-05
  5.41884090E-06 -4.61017807E-04 -1.26141044E-04  5.23787359E-05 -1.44959366E-04
  4.36302665E-06  2.83081349E-05  5.74129869E-05 -8.53266173E-06 -2.47378228E-05
  3.23272183E-05  2.12839622E-06  9.17189358E-05  9.86238698E-07  1.83036525E-04
 -4.81251378E-04 -3.09268998E-04  1.06420668E-04 -3.96702530E-06  7.23778702E-05
  7.95216252E-04 -1.72635697E-03 -1.75130085E-05 -1.17204831E-03 -8.88514122E-05
 -2.17841923E-04 -1.37166887E-04  1.08730273E-05  5.79145947E-05  6.59925732E-06
 -1.67643137E-05 -8.62680747E-05 -5.74137055E-05  8.48924212E-07 -1.58760702E-05
  7.30343019E-04  5.80596876E-04  1.18640709E-06 -1.20524045E-04 -6.67120889E-05
 -4.21267737E-05 -2.46824073E-05  3.94055635E-08 -1.16945738E-04  6.04604825E-07
 -8.06289118E-06 -6.47574709E-05 -5.90718644E-06  1.39506220E-06 -3.89215595E-05
  3.55934379E-04  1.44953190E-04 -7.69665021E-07  4.74166106E-04 -8.92983963E-05
 -5.13446855E-05  7.61146135E-05  8.34670776E-07 -5.41506524E-05  7.97998056E-07
 -9.74097467E-05  1.63828656E-04  9.95993850E-01  2.63334133E-02 -8.64514243E-06
  1.43293382E-04  4.44583310E-04 -1.24951675E-02  1.92208426E-04 -1.34227815E-04
 -8.67358864E-05 -1.64410859E-03 -1.27061611E-03 -1.48233783E-03 -6.74272635E-05
 -3.92105086E-04 -4.41954305E-05  9.19471032E-05  2.53815417E-03  9.07162620E-05
  2.44574352E-03 -2.39547615E-04  7.19923585E-06 -7.72726299E-05 -1.10836265E-05
  3.08944411E-05  2.62480903E-03  9.16840540E-04 -2.30696819E-04 -5.00746639E-04
 -4.74614291E-04 -1.76425893E-04 -2.45396195E-04  1.36917240E-04  2.52683683E-04
 -6.46534988E-05 -3.94153020E-05  2.34535302E-04 -7.31435201E-05  2.79035132E-04
 -1.13113585E-01  2.20486703E-01  9.20357249E-02  6.24635869E-05  5.59069642E-02
  3.86770651E-02 -1.47056102E-02 -3.37756195E-04 -9.21526859E-03  2.54822466E-03
 -2.01225966E-02  1.49801362E-02  7.27934436E-06 -1.44990992E-02 -1.47641088E-05
 -1.10596411E-01  2.44499980E-01  1.44538676E-02 -1.73494968E-04 -9.35778114E-02
  2.07288678E-01  1.17834825E-02 -1.30803305E-04 -3.23851175E-02 -1.67409085E-03
 -4.36450946E-04  1.28243894E-02  1.73339855E-05 -3.30661373E-03  1.05612631E-05
 -1.58138174E-01  3.59181981E-01 -2.85816127E-02 -3.28398113E-04  8.73491864E-02
  3.19326453E-01 -1.04911087E-02 -1.65191208E-04  4.77392974E-02  1.72206551E-02
 -2.45606351E-04  1.53063473E-02 -7.67542780E-05 -2.16728899E-04 -6.20761951E-05
  8.91526737E-02 -6.32839885E-03 -1.35757787E-03  3.32256249E-03  1.47020313E-03
  2.13475234E-04  1.30452059E-03 -1.43994926E-04 -5.41547210E-04 -2.23249699E-04
 -1.04208555E-03  4.69857453E-05  1.70184229E-05 -6.47580389E-06 -3.50097687E-06
 -4.79780041E-05 -1.08888307E-05  6.26896578E-04 -2.62442461E-04  6.15915874E-04
 -3.75241273E-04 -5.05085826E-04  9.91103924E-04  6.27915860E-04 -2.23953464E-04
 -2.76262988E-05  1.64417662E-03 -5.46843458E-04 -2.98085868E-04 -1.08138539E-04
  1.92497737E-04  4.50672259E-05  9.65644540E-06 -3.25862259E-06  6.40903144E-05
  5.21432768E-06  1.73180372E-05 -5.63253134E-04  5.44849424E-04 -5.83777392E-04
 -4.72625263E-02  9.40411504E-02 -7.36270021E-02  3.98962097E-05  2.18882432E-01
  1.76158194E-02  8.32379976E-04 -2.64725103E-04 -1.69313810E-02 -3.05628597E-02
 -8.05639134E-03  2.94282587E-02 -1.87004793E-05  1.59082519E-02  1.61961981E-05
 -1.66549291E-01  3.64590817E-01 -6.24730066E-03 -2.53289322E-04 -1.08275988E-01
  3.38124030E-01 -1.48916997E-03 -2.70421578E-04 -3.86772637E-02 -2.00104456E-03
 -2.73337408E-03  1.33064224E-02  5.35486332E-05  1.03542337E-03  1.81407966E-05
  1.32687964E-01 -3.00948410E-01 -4.32754851E-03  2.77720006E-04 -4.16987177E-02
 -2.89050627E-01 -5.89589511E-03  3.17452824E-04 -1.88432827E-02 -1.13712729E-02
  9.66382226E-05 -6.50122747E-03  4.90662137E-05 -8.10349521E-03  6.14045509E-05
 -7.88635042E-02  6.96245444E-03 -4.34241818E-04  1.51654131E-03  5.42274069E-04
  2.08470611E-04  4.02498071E-04  4.18930111E-04 -6.95713567E-03 -3.53913551E-04
  3.63636108E-03  6.00299022E-05 -2.93326159E-05  2.83529206E-04 -2.08943366E-04
 -3.29779780E-04  2.17851346E-04  7.32171951E-04  1.38222943E-03  3.85076473E-04
 -3.19899553E-04 -4.99156680E-04  2.12884442E-03  1.40584784E-04 -3.92586109E-04
 -1.11094435E-05 -5.81557856E-03 -3.44237487E-04  1.81387804E-03  1.78813489E-03
  1.12485698E-04  2.20053177E-04  2.71852767E-04  6.35540681E-05  3.43298924E-05
 -1.68377820E-04  8.95585295E-04  2.58649754E-04  3.06046377E-04  1.62345211E-03
 -1.58290739E-03  2.86017748E-03 -5.50618292E-03 -5.02672512E-05 -5.77344202E-03
  6.78258265E-03 -4.84393491E-03  1.36775168E-04 -3.49060181E-04  5.12170541E-04
 -1.25084483E-04 -4.02557554E-04 -2.89747403E-05  4.87839981E-04 -1.46111339E-05
  2.46204835E-03 -5.27310831E-03 -1.19958465E-03  2.30662688E-05  9.99244622E-04
 -7.01639569E-03  3.32678604E-04 -1.95467174E-05  1.07507042E-03  1.08791847E-04
  9.33685766E-05 -1.47422679E-04 -7.45676764E-06  5.41737330E-05 -7.73643534E-07
  8.54367971E-04 -2.13751120E-03 -1.40616502E-03 -8.49839040E-06 -1.32924056E-03