get orbital                                                             
Freq      RHF                                                         6-31+G(d)           
Number of atoms                            I                3
Info1-9                                    I   N=           9
          14          14        1002           0           0         100
           6           1           2
Full Title                                 C   N=           1
get orbital 
Route                                      C   N=           4
#p HF/6-31+G(d) OPT FREQ pop=full Gfprint       
Charge                                     I                0
Multiplicity                               I                1
Number of electrons                        I               22
Number of alpha electrons                  I               11
Number of beta electrons                   I               11
Number of basis functions                  I               57
Number of independent functions            I               57
Number of point charges in /Mol/           I                0
Number of translation vectors              I                0
Atomic numbers                             I   N=           3
           8           6           8
Nuclear charges                            R   N=           3
  8.00000000E+00  6.00000000E+00  8.00000000E+00
Current cartesian coordinates              R   N=           9
  0.00000000E+00  0.00000000E+00  2.16061665E+00  0.00000000E+00  0.00000000E+00
  0.00000000E+00  2.64599226E-16  0.00000000E+00 -2.16061665E+00
Number of symbols in /Mol/                 I                0
Force Field                                I                0
Atom Types                                 C   N=           3
                                    
Int Atom Types                             I   N=           3
           0           0           0
MM charges                                 R   N=           3
  0.00000000E+00  0.00000000E+00  0.00000000E+00
Integer atomic weights                     I   N=           3
          16          12          16
Real atomic weights                        R   N=           3
  1.59949146E+01  1.20000000E+01  1.59949146E+01
Atom fragment info                         I   N=           3
           0           0           0
Atom residue num                           I   N=           3
           0           0           0
Nuclear spins                              I   N=           3
           0           0           0
Nuclear ZEff                               R   N=           3
 -5.60000000E+00 -3.60000000E+00 -5.60000000E+00
Nuclear ZNuc                               R   N=           3
  8.00000000E+00  6.00000000E+00  8.00000000E+00
Nuclear QMom                               R   N=           3
  0.00000000E+00  0.00000000E+00  0.00000000E+00
Nuclear GFac                               R   N=           3
  0.00000000E+00  0.00000000E+00  0.00000000E+00
MicOpt                                     I   N=           3
          -1          -1          -1
Number of residues                         I                0
Number of secondary structures             I                0
Redundant internal dimensions              I   N=           4
           4           2           2           0
Redundant internal coordinate indices      I   N=          16
           1           2           0           0           2           3
           0           0           1           2           3          -3
           1           2           3          -7
Redundant internal coordinates             R   N=           4
  2.16061665E+00  2.16061665E+00  3.14159265E+00  3.14159265E+00
ZRed-IntVec                                I   N=           4
           0           0           0           0
ZRed-FPVec                                 R   N=           4
  0.00000000E+00  0.00000000E+00  0.00000000E+00  0.00000000E+00
ZRed-Constraint1                           R   N=           4
  2.16061665E+00  2.16061665E+00  3.14159265E+00  3.14159265E+00
ZRed-Constraint2                           R   N=           4
  1.88972612E+00  1.88972612E+00  3.14159265E+00  3.14159265E+00
SymInf integers                            I   N=          26
           2           8           1           1           1          -1
           1          -1          -1          -1           1           1
          -1          -1          -1           1           1           1
          -1           1           1           1          -1          -1
          -1          -1
RotTr to input orientation                 R   N=          12
  1.00000000E+00  0.00000000E+00  0.00000000E+00  0.00000000E+00 -1.00000000E+00
  0.00000000E+00  0.00000000E+00  0.00000000E+00 -1.00000000E+00  4.77043629E-16
  0.00000000E+00  1.88972612E+00
Number of contracted shells                I               15
Number of primitive shells                 I               36
Pure/Cartesian d shells                    I                1
Pure/Cartesian f shells                    I                0
Highest angular momentum                   I                2
Largest degree of contraction              I                6
Shell types                                I   N=          15
           0          -1          -1          -1           2           0
          -1          -1          -1           2           0          -1
          -1          -1           2
Number of primitives per shell             I   N=          15
           6           3           1           1           1           6
           3           1           1           1           6           3
           1           1           1
Shell to atom map                          I   N=          15
           1           1           1           1           1           2
           2           2           2           2           3           3
           3           3           3
Primitive exponents                        R   N=          36
  5.48467166E+03  8.25234946E+02  1.88046958E+02  5.29645000E+01  1.68975704E+01
  5.79963534E+00  1.55396162E+01  3.59993359E+00  1.01376175E+00  2.70005823E-01
  8.45000000E-02  8.00000000E-01  3.04752488E+03  4.57369518E+02  1.03948685E+02
  2.92101553E+01  9.28666296E+00  3.16392696E+00  7.86827235E+00  1.88128854E+00
  5.44249258E-01  1.68714478E-01  4.38000000E-02  8.00000000E-01  5.48467166E+03
  8.25234946E+02  1.88046958E+02  5.29645000E+01  1.68975704E+01  5.79963534E+00
  1.55396162E+01  3.59993359E+00  1.01376175E+00  2.70005823E-01  8.45000000E-02
  8.00000000E-01
Contraction coefficients                   R   N=          36
  1.83107443E-03  1.39501722E-02  6.84450781E-02  2.32714336E-01  4.70192898E-01
  3.58520853E-01 -1.10777550E-01 -1.48026263E-01  1.13076702E+00  1.00000000E+00
  1.00000000E+00  1.00000000E+00  1.83473713E-03  1.40373228E-02  6.88426223E-02
  2.32184443E-01  4.67941348E-01  3.62311985E-01 -1.19332420E-01 -1.60854152E-01
  1.14345644E+00  1.00000000E+00  1.00000000E+00  1.00000000E+00  1.83107443E-03
  1.39501722E-02  6.84450781E-02  2.32714336E-01  4.70192898E-01  3.58520853E-01
 -1.10777550E-01 -1.48026263E-01  1.13076702E+00  1.00000000E+00  1.00000000E+00
  1.00000000E+00
P(S=P) Contraction coefficients            R   N=          36
  0.00000000E+00  0.00000000E+00  0.00000000E+00  0.00000000E+00  0.00000000E+00
  0.00000000E+00  7.08742682E-02  3.39752839E-01  7.27158577E-01  1.00000000E+00
  1.00000000E+00  0.00000000E+00  0.00000000E+00  0.00000000E+00  0.00000000E+00
  0.00000000E+00  0.00000000E+00  0.00000000E+00  6.89990666E-02  3.16423961E-01
  7.44308291E-01  1.00000000E+00  1.00000000E+00  0.00000000E+00  0.00000000E+00
  0.00000000E+00  0.00000000E+00  0.00000000E+00  0.00000000E+00  0.00000000E+00
  7.08742682E-02  3.39752839E-01  7.27158577E-01  1.00000000E+00  1.00000000E+00
  0.00000000E+00
Coordinates of each shell                  R   N=          45
  0.00000000E+00  0.00000000E+00  2.16061665E+00  0.00000000E+00  0.00000000E+00
  2.16061665E+00  0.00000000E+00  0.00000000E+00  2.16061665E+00  0.00000000E+00
  0.00000000E+00  2.16061665E+00  0.00000000E+00  0.00000000E+00  2.16061665E+00
  0.00000000E+00  0.00000000E+00  0.00000000E+00  0.00000000E+00  0.00000000E+00
  0.00000000E+00  0.00000000E+00  0.00000000E+00  0.00000000E+00  0.00000000E+00
  0.00000000E+00  0.00000000E+00  0.00000000E+00  0.00000000E+00  0.00000000E+00
  2.64599226E-16  0.00000000E+00 -2.16061665E+00  2.64599226E-16  0.00000000E+00
 -2.16061665E+00  2.64599226E-16  0.00000000E+00 -2.16061665E+00  2.64599226E-16
  0.00000000E+00 -2.16061665E+00  2.64599226E-16  0.00000000E+00 -2.16061665E+00
Num ILSW                                   I              100
ILSW                                       I   N=         100
           0           1           0           0           2           0
           0           0           0           0           0          -1
           5           0           0           0           2           0
           0           0           0           0           1           0
           1           0           0           0           0           0
           0           0      100000           0          -1           0
           0           0           0           0           0           0
           0           0           0           1           0           0
           0 -2000000000           1           0           0           0
           0           0           4          52           0           0
           0           0           0           0           0           0
           0           0           0           3           0           1
           0           0           0           0           0           0
           0           0           0           0           0           0
           0           0           0           0           0           0
           0           0           0           0           0           0
           0           0           0           0
Num RLSW                                   I               52
RLSW                                       R   N=          52
  1.00000000E+00  1.00000000E+00  1.00000000E+00  1.00000000E+00  1.00000000E+00
  0.00000000E+00  0.00000000E+00  1.00000000E+00  0.00000000E+00  0.00000000E+00
  0.00000000E+00  0.00000000E+00  1.00000000E+00  0.00000000E+00  0.00000000E+00
  0.00000000E+00  0.00000000E+00  1.00000000E+00  0.00000000E+00  0.00000000E+00
  0.00000000E+00  0.00000000E+00  1.00000000E+00  0.00000000E+00  0.00000000E+00
  0.00000000E+00  0.00000000E+00  1.00000000E+00  0.00000000E+00  0.00000000E+00
  0.00000000E+00  0.00000000E+00  1.00000000E+00  0.00000000E+00  0.00000000E+00
  0.00000000E+00  0.00000000E+00  0.00000000E+00  1.00000000E+00  1.00000000E+00
  0.00000000E+00  1.00000000E+00  0.00000000E+00  0.00000000E+00  0.00000000E+00
  0.00000000E+00  0.00000000E+00  0.00000000E+00  0.00000000E+00  0.00000000E+00
  0.00000000E+00  0.00000000E+00
MxBond                                     I                2
NBond                                      I   N=           3
           1           2           1
IBond                                      I   N=           6
           2           0           1           3           2           0
RBond                                      R   N=           6
  3.00000000E+00  0.00000000E+00  3.00000000E+00  3.00000000E+00  3.00000000E+00
  0.00000000E+00
Virial Ratio                               R      2.002865530134029E+00
SCF Energy                                 R     -1.876387867577913E+02
Total Energy                               R     -1.876387867577913E+02
RMS Force                                  R      1.145221944547478E-05
RMS Density                                R      1.242614681786167E-10
NImag                                      I                0
Job Status                                 I                1
Nuclear derivative order                   I                2
External E-field                           R   N=          35
  0.00000000E+00  0.00000000E+00  0.00000000E+00  0.00000000E+00  0.00000000E+00
  0.00000000E+00  0.00000000E+00  0.00000000E+00  0.00000000E+00  0.00000000E+00
  0.00000000E+00  0.00000000E+00  0.00000000E+00  0.00000000E+00  0.00000000E+00
  0.00000000E+00  0.00000000E+00  0.00000000E+00  0.00000000E+00  0.00000000E+00
  0.00000000E+00  0.00000000E+00  0.00000000E+00  0.00000000E+00  0.00000000E+00
  0.00000000E+00  0.00000000E+00  0.00000000E+00  0.00000000E+00  0.00000000E+00
  0.00000000E+00  0.00000000E+00  0.00000000E+00  0.00000000E+00  0.00000000E+00
IOpCl                                      I                0
IROHF                                      I                0
Alpha Orbital Energies                     R   N=          57
 -2.06672353E+01 -2.06672092E+01 -1.14690466E+01 -1.55030242E+00 -1.49539858E+00
 -7.99767770E-01 -7.46676482E-01 -7.26201476E-01 -7.26201476E-01 -5.47429694E-01
 -5.47429694E-01  5.69202722E-02  9.53602440E-02  9.53602440E-02  1.01451785E-01
  2.21247408E-01  2.21247408E-01  2.44470532E-01  2.80607712E-01  2.80607712E-01
  2.84322956E-01  3.25539045E-01  3.51140995E-01  3.51140995E-01  3.90901932E-01
  5.34385571E-01  8.64235473E-01  8.64235473E-01  8.83523180E-01  1.21854364E+00
  1.22981724E+00  1.35582009E+00  1.38398175E+00  1.38398175E+00  1.50525028E+00
  1.50525028E+00  1.60388270E+00  1.62738592E+00  1.62738592E+00  1.68831923E+00
  1.70085167E+00  1.70085167E+00  2.00525054E+00  2.00525054E+00  2.34970741E+00
  2.34970741E+00  2.40464166E+00  2.48507988E+00  2.48507988E+00  3.24408573E+00
  3.37166918E+00  3.37166918E+00  3.66659459E+00  3.73263594E+00  4.44107584E+00
  5.04223541E+00  5.24771089E+00
Alpha MO coefficients                      R   N=        3249
  7.03367332E-01  1.51112626E-02  0.00000000E+00  0.00000000E+00 -1.38668246E-03
  3.55376750E-04  0.00000000E+00  0.00000000E+00  1.72363233E-03 -3.91431221E-03
  0.00000000E+00  0.00000000E+00  4.26130151E-04 -2.80459184E-03 -2.80459184E-03
 -2.63173737E-03  0.00000000E+00  0.00000000E+00  0.00000000E+00  0.00000000E+00
  0.00000000E+00  0.00000000E+00  0.00000000E+00  9.84729133E-05  0.00000000E+00
  0.00000000E+00  0.00000000E+00  4.90202308E-03  0.00000000E+00  0.00000000E+00
  0.00000000E+00  1.22789809E-03  0.00000000E+00  0.00000000E+00  0.00000000E+00
  0.00000000E+00  0.00000000E+00  0.00000000E+00 -7.03367332E-01 -1.51112626E-02
  0.00000000E+00  0.00000000E+00 -1.38668246E-03 -3.55376750E-04  0.00000000E+00
  0.00000000E+00  1.72363233E-03  3.91431221E-03  0.00000000E+00  0.00000000E+00
  4.26130151E-04  2.80459184E-03  2.80459184E-03  2.63173737E-03  0.00000000E+00
  0.00000000E+00  0.00000000E+00  7.03359909E-01  1.51958459E-02  0.00000000E+00
  0.00000000E+00 -1.99300462E-03  4.09332010E-03  0.00000000E+00  0.00000000E+00
 -6.18988246E-04 -3.41618925E-04  0.00000000E+00  0.00000000E+00 -6.10608185E-05
 -2.99863754E-03 -2.99863754E-03 -1.77747138E-03  0.00000000E+00  0.00000000E+00
  0.00000000E+00 -1.53995390E-04  8.29507431E-05  0.00000000E+00  0.00000000E+00
  0.00000000E+00 -1.54840783E-03  0.00000000E+00  0.00000000E+00  0.00000000E+00
  2.57918988E-04  0.00000000E+00  0.00000000E+00  0.00000000E+00  2.58402719E-05
  2.58402719E-05 -2.90928102E-03  0.00000000E+00  0.00000000E+00  0.00000000E+00
  7.03359909E-01  1.51958459E-02  0.00000000E+00  0.00000000E+00  1.99300462E-03
  4.09332010E-03  0.00000000E+00  0.00000000E+00  6.18988246E-04 -3.41618925E-04
  0.00000000E+00  0.00000000E+00  6.10608185E-05 -2.99863754E-03 -2.99863754E-03
 -1.77747138E-03  0.00000000E+00  0.00000000E+00  0.00000000E+00 -5.89053766E-04
  5.60921967E-05  0.00000000E+00  0.00000000E+00  8.14521690E-05 -1.41562928E-03
  0.00000000E+00  0.00000000E+00  1.36117530E-03  4.12906636E-03  0.00000000E+00
  0.00000000E+00 -1.96158859E-03  9.96739443E-05  9.96739443E-05 -3.28003344E-04
  0.00000000E+00  0.00000000E+00  0.00000000E+00  9.95907498E-01  2.81265265E-02
  0.00000000E+00  0.00000000E+00  0.00000000E+00 -1.09241777E-02  0.00000000E+00
  0.00000000E+00  0.00000000E+00 -2.58944106E-03  0.00000000E+00  0.00000000E+00
  0.00000000E+00 -2.50808377E-03 -2.50808377E-03  1.39761256E-03  0.00000000E+00
  0.00000000E+00  0.00000000E+00 -5.89053766E-04  5.60921967E-05  0.00000000E+00
  0.00000000E+00 -8.14521690E-05 -1.41562928E-03  0.00000000E+00  0.00000000E+00
 -1.36117530E-03  4.12906636E-03  0.00000000E+00  0.00000000E+00  1.96158859E-03
  9.96739443E-05  9.96739443E-05 -3.28003344E-04  0.00000000E+00  0.00000000E+00
  0.00000000E+00 -1.35390345E-01  2.91196612E-01  0.00000000E+00  0.00000000E+00
 -1.08646756E-01  2.57745265E-01  0.00000000E+00  0.00000000E+00 -4.24675862E-02
 -2.31744994E-02  0.00000000E+00  0.00000000E+00  4.74405917E-03 -3.38627778E-03
 -3.38627778E-03  1.21304009E-02  0.00000000E+00  0.00000000E+00  0.00000000E+00
 -1.56163789E-01  2.98252344E-01  0.00000000E+00  0.00000000E+00  0.00000000E+00
  6.00050176E-02  0.00000000E+00  0.00000000E+00  0.00000000E+00  2.26554432E-02
  0.00000000E+00  0.00000000E+00  0.00000000E+00 -2.96148880E-02 -2.96148880E-02
  4.84923178E-02  0.00000000E+00  0.00000000E+00  0.00000000E+00 -1.35390345E-01
  2.91196612E-01  0.00000000E+00  0.00000000E+00  1.08646756E-01  2.57745265E-01
  0.00000000E+00  0.00000000E+00  4.24675862E-02 -2.31744994E-02  0.00000000E+00
  0.00000000E+00 -4.74405917E-03 -3.38627778E-03 -3.38627778E-03  1.21304009E-02
  0.00000000E+00  0.00000000E+00  0.00000000E+00 -1.46928870E-01  3.24100917E-01
  0.00000000E+00  0.00000000E+00 -1.11837983E-01  2.71068736E-01  0.00000000E+00
  0.00000000E+00 -2.20307748E-02  1.30364862E-02  0.00000000E+00  0.00000000E+00
 -1.93859329E-02 -2.47562922E-03 -2.47562922E-03  1.42584004E-02  0.00000000E+00
  0.00000000E+00  0.00000000E+00  0.00000000E+00  0.00000000E+00  0.00000000E+00
  0.00000000E+00  3.34337905E-01  0.00000000E+00  0.00000000E+00  0.00000000E+00
 -3.13615808E-02  0.00000000E+00  0.00000000E+00  0.00000000E+00  1.41378368E-02
  0.00000000E+00  0.00000000E+00  0.00000000E+00  0.00000000E+00  0.00000000E+00
  0.00000000E+00  1.46928870E-01 -3.24100917E-01  0.00000000E+00  0.00000000E+00
 -1.11837983E-01 -2.71068736E-01  0.00000000E+00  0.00000000E+00 -2.20307748E-02
 -1.30364862E-02  0.00000000E+00  0.00000000E+00 -1.93859329E-02  2.47562922E-03
  2.47562922E-03 -1.42584004E-02  0.00000000E+00  0.00000000E+00  0.00000000E+00
 -8.60786218E-02  2.08671018E-01  0.00000000E+00  0.00000000E+00  3.37190167E-01
  3.15275288E-01  0.00000000E+00  0.00000000E+00  1.55431236E-01  3.61714962E-02
  0.00000000E+00  0.00000000E+00 -9.80827639E-04  8.84148467E-03  8.84148467E-03
 -1.70652268E-02  0.00000000E+00  0.00000000E+00  0.00000000E+00  1.32958353E-01
 -3.13171399E-01  0.00000000E+00  0.00000000E+00  0.00000000E+00 -2.28647114E-01
  0.00000000E+00  0.00000000E+00  0.00000000E+00  1.25409085E-03  0.00000000E+00
  0.00000000E+00  0.00000000E+00  1.69024406E-02  1.69024406E-02 -1.45646689E-02
  0.00000000E+00  0.00000000E+00  0.00000000E+00 -8.60786218E-02  2.08671018E-01
  0.00000000E+00  0.00000000E+00 -3.37190167E-01  3.15275288E-01  0.00000000E+00
  0.00000000E+00 -1.55431236E-01  3.61714962E-02  0.00000000E+00  0.00000000E+00
  9.80827639E-04  8.84148467E-03  8.84148467E-03 -1.70652268E-02  0.00000000E+00
  0.00000000E+00  0.00000000E+00 -6.61444907E-02  1.51066724E-01  0.00000000E+00
  0.00000000E+00  3.90995225E-01  3.44378780E-01  0.00000000E+00  0.00000000E+00
  1.50743735E-01  6.54059178E-02  0.00000000E+00  0.00000000E+00 -5.31562315E-03
  6.96875655E-03  6.96875655E-03 -2.38751975E-02  0.00000000E+00  0.00000000E+00
  0.00000000E+00  0.00000000E+00  0.00000000E+00  0.00000000E+00  0.00000000E+00
 -3.71190326E-01  0.00000000E+00  0.00000000E+00  0.00000000E+00 -1.34488592E-01
  0.00000000E+00  0.00000000E+00  0.00000000E+00  7.05946545E-03  0.00000000E+00
  0.00000000E+00  0.00000000E+00  0.00000000E+00  0.00000000E+00  0.00000000E+00
  6.61444907E-02 -1.51066724E-01  0.00000000E+00  0.00000000E+00  3.90995225E-01
 -3.44378780E-01  0.00000000E+00  0.00000000E+00  1.50743735E-01 -6.54059178E-02
  0.00000000E+00  0.00000000E+00 -5.31562315E-03 -6.96875655E-03 -6.96875655E-03
  2.38751975E-02  0.00000000E+00  0.00000000E+00  0.00000000E+00  0.00000000E+00
  0.00000000E+00  3.62654591E-01  0.00000000E+00  0.00000000E+00  0.00000000E+00
  2.22928344E-01  0.00000000E+00  0.00000000E+00  0.00000000E+00 -9.61476809E-03
  0.00000000E+00  0.00000000E+00  0.00000000E+00  0.00000000E+00  0.00000000E+00
  0.00000000E+00 -3.50228406E-02  0.00000000E+00  0.00000000E+00  0.00000000E+00
  3.60302916E-01  0.00000000E+00  0.00000000E+00  0.00000000E+00  1.16528213E-01
  0.00000000E+00  0.00000000E+00  0.00000000E+00  3.00416163E-02  0.00000000E+00
  0.00000000E+00  0.00000000E+00  0.00000000E+00  0.00000000E+00  0.00000000E+00
  0.00000000E+00  0.00000000E+00  0.00000000E+00  0.00000000E+00  3.62654591E-01
  0.00000000E+00  0.00000000E+00  0.00000000E+00  2.22928344E-01  0.00000000E+00
  0.00000000E+00  0.00000000E+00 -9.61476809E-03  0.00000000E+00  0.00000000E+00
  0.00000000E+00  0.00000000E+00  0.00000000E+00  0.00000000E+00  3.50228406E-02
  0.00000000E+00  0.00000000E+00  0.00000000E+00  0.00000000E+00  3.62654591E-01
  0.00000000E+00  0.00000000E+00  0.00000000E+00  2.22928344E-01  0.00000000E+00
  0.00000000E+00  0.00000000E+00 -9.61476809E-03  0.00000000E+00  0.00000000E+00
  0.00000000E+00  0.00000000E+00  0.00000000E+00  0.00000000E+00 -3.50228406E-02
  0.00000000E+00  0.00000000E+00  0.00000000E+00  3.60302916E-01  0.00000000E+00
  0.00000000E+00  0.00000000E+00  1.16528213E-01  0.00000000E+00  0.00000000E+00
  0.00000000E+00  3.00416163E-02  0.00000000E+00  0.00000000E+00  0.00000000E+00
  0.00000000E+00  0.00000000E+00  0.00000000E+00  0.00000000E+00  0.00000000E+00
  0.00000000E+00  0.00000000E+00  3.62654591E-01  0.00000000E+00  0.00000000E+00
  0.00000000E+00  2.22928344E-01  0.00000000E+00  0.00000000E+00  0.00000000E+00
 -9.61476809E-03  0.00000000E+00  0.00000000E+00  0.00000000E+00  0.00000000E+00
  0.00000000E+00  0.00000000E+00  3.50228406E-02  0.00000000E+00  0.00000000E+00
  0.00000000E+00  4.56082848E-01  0.00000000E+00  0.00000000E+00  0.00000000E+00
  3.26685900E-01  0.00000000E+00  0.00000000E+00  0.00000000E+00  3.38764528E-02
  0.00000000E+00  0.00000000E+00  0.00000000E+00  0.00000000E+00  0.00000000E+00
  0.00000000E+00 -2.61793669E-02  0.00000000E+00  0.00000000E+00  0.00000000E+00
  0.00000000E+00  0.00000000E+00  0.00000000E+00  0.00000000E+00  0.00000000E+00
  0.00000000E+00  0.00000000E+00  0.00000000E+00  0.00000000E+00  0.00000000E+00
  0.00000000E+00  0.00000000E+00  0.00000000E+00  0.00000000E+00  0.00000000E+00
  7.30725634E-02  0.00000000E+00  0.00000000E+00  0.00000000E+00 -4.56082848E-01
  0.00000000E+00  0.00000000E+00  0.00000000E+00 -3.26685900E-01  0.00000000E+00
  0.00000000E+00  0.00000000E+00 -3.38764528E-02  0.00000000E+00  0.00000000E+00
  0.00000000E+00  0.00000000E+00  0.00000000E+00  0.00000000E+00 -2.61793669E-02
  0.00000000E+00  0.00000000E+00  4.56082848E-01  0.00000000E+00  0.00000000E+00
  0.00000000E+00  3.26685900E-01  0.00000000E+00  0.00000000E+00  0.00000000E+00
  3.38764528E-02  0.00000000E+00  0.00000000E+00  0.00000000E+00  0.00000000E+00
  0.00000000E+00  0.00000000E+00 -2.61793669E-02  0.00000000E+00  0.00000000E+00
  0.00000000E+00  0.00000000E+00  0.00000000E+00  0.00000000E+00  0.00000000E+00
  0.00000000E+00  0.00000000E+00  0.00000000E+00  0.00000000E+00  0.00000000E+00
  0.00000000E+00  0.00000000E+00  0.00000000E+00  0.00000000E+00  0.00000000E+00
  0.00000000E+00  7.30725634E-02  0.00000000E+00  0.00000000E+00  0.00000000E+00
 -4.56082848E-01  0.00000000E+00  0.00000000E+00  0.00000000E+00 -3.26685900E-01
  0.00000000E+00  0.00000000E+00  0.00000000E+00 -3.38764528E-02  0.00000000E+00
  0.00000000E+00  0.00000000E+00  0.00000000E+00  0.00000000E+00  0.00000000E+00
 -2.61793669E-02  0.00000000E+00  2.69128743E-02 -9.70562063E-02  0.00000000E+00
  0.00000000E+00  3.86636156E-02 -8.70420184E-02  0.00000000E+00  0.00000000E+00
  9.64040125E-02 -1.30027300E+00  0.00000000E+00  0.00000000E+00  2.46515887E-01
 -3.91229235E-03 -3.91229235E-03 -1.88399304E-02  0.00000000E+00  0.00000000E+00
  0.00000000E+00 -1.55542889E-02 -4.92354732E-02  0.00000000E+00  0.00000000E+00
  0.00000000E+00  7.53170637E-01  0.00000000E+00  0.00000000E+00  0.00000000E+00
  2.69099074E+00  0.00000000E+00  0.00000000E+00  0.00000000E+00  8.20050541E-03
  8.20050541E-03 -1.75231538E-02  0.00000000E+00  0.00000000E+00  0.00000000E+00
  2.69128743E-02 -9.70562063E-02  0.00000000E+00  0.00000000E+00 -3.86636156E-02
 -8.70420184E-02  0.00000000E+00  0.00000000E+00 -9.64040125E-02 -1.30027300E+00
  0.00000000E+00  0.00000000E+00 -2.46515887E-01 -3.91229235E-03 -3.91229235E-03
 -1.88399304E-02  0.00000000E+00  0.00000000E+00  0.00000000E+00  0.00000000E+00
  0.00000000E+00  0.00000000E+00 -8.52111843E-02  0.00000000E+00  0.00000000E+00
  0.00000000E+00 -6.03631375E-03  0.00000000E+00  0.00000000E+00  0.00000000E+00
 -5.36389373E-01  0.00000000E+00  0.00000000E+00  0.00000000E+00  0.00000000E+00
  0.00000000E+00  0.00000000E+00  5.19127452E-03  0.00000000E+00  0.00000000E+00
  0.00000000E+00 -3.34405620E-02  0.00000000E+00  0.00000000E+00  0.00000000E+00
  2.98284123E-03  0.00000000E+00  0.00000000E+00  0.00000000E+00  1.72916633E+00
  0.00000000E+00  0.00000000E+00  0.00000000E+00  0.00000000E+00  0.00000000E+00
  0.00000000E+00  0.00000000E+00  0.00000000E+00  0.00000000E+00  0.00000000E+00
 -8.52111843E-02  0.00000000E+00  0.00000000E+00  0.00000000E+00 -6.03631375E-03
  0.00000000E+00  0.00000000E+00  0.00000000E+00 -5.36389373E-01  0.00000000E+00
  0.00000000E+00  0.00000000E+00  0.00000000E+00  0.00000000E+00  0.00000000E+00
 -5.19127452E-03  0.00000000E+00  0.00000000E+00 -8.52111843E-02  0.00000000E+00
  0.00000000E+00  0.00000000E+00 -6.03631375E-03  0.00000000E+00  0.00000000E+00
  0.00000000E+00 -5.36389373E-01  0.00000000E+00  0.00000000E+00  0.00000000E+00
  0.00000000E+00  0.00000000E+00  0.00000000E+00  5.19127452E-03  0.00000000E+00
  0.00000000E+00  0.00000000E+00 -3.34405620E-02  0.00000000E+00  0.00000000E+00
  0.00000000E+00  2.98284123E-03  0.00000000E+00  0.00000000E+00  0.00000000E+00
  1.72916633E+00  0.00000000E+00  0.00000000E+00  0.00000000E+00  0.00000000E+00
  0.00000000E+00  0.00000000E+00  0.00000000E+00  0.00000000E+00  0.00000000E+00
  0.00000000E+00 -8.52111843E-02  0.00000000E+00  0.00000000E+00  0.00000000E+00
 -6.03631375E-03  0.00000000E+00  0.00000000E+00  0.00000000E+00 -5.36389373E-01
  0.00000000E+00  0.00000000E+00  0.00000000E+00  0.00000000E+00  0.00000000E+00
  0.00000000E+00 -5.19127452E-03  0.00000000E+00  1.74128724E-02 -4.26929630E-02
  0.00000000E+00  0.00000000E+00 -4.86442499E-02 -3.31019049E-01  0.00000000E+00
  0.00000000E+00  2.05355466E-01 -2.51695680E+00  0.00000000E+00  0.00000000E+00
  1.79325258E-01 -1.45928940E-03 -1.45928940E-03 -1.08560779E-02  0.00000000E+00
  0.00000000E+00  0.00000000E+00  0.00000000E+00  0.00000000E+00  0.00000000E+00
  0.00000000E+00  4.57165681E-02  0.00000000E+00  0.00000000E+00  0.00000000E+00
  1.02116791E+00  0.00000000E+00  0.00000000E+00  0.00000000E+00  2.57076965E+00
  0.00000000E+00  0.00000000E+00  0.00000000E+00  0.00000000E+00  0.00000000E+00
  0.00000000E+00 -1.74128724E-02  4.26929630E-02  0.00000000E+00  0.00000000E+00
 -4.86442499E-02  3.31019049E-01  0.00000000E+00  0.00000000E+00  2.05355466E-01
  2.51695680E+00  0.00000000E+00  0.00000000E+00  1.79325258E-01  1.45928940E-03
  1.45928940E-03  1.08560779E-02  0.00000000E+00  0.00000000E+00  0.00000000E+00
  0.00000000E+00  0.00000000E+00 -2.98060210E-01  0.00000000E+00  0.00000000E+00
  0.00000000E+00 -3.83154343E-01  0.00000000E+00  0.00000000E+00  0.00000000E+00
 -3.57022108E-01  0.00000000E+00  0.00000000E+00  0.00000000E+00  0.00000000E+00
  0.00000000E+00  0.00000000E+00 -1.98092234E-02  0.00000000E+00  0.00000000E+00
  0.00000000E+00  5.50984888E-01  0.00000000E+00  0.00000000E+00  0.00000000E+00
  9.38992540E-01  0.00000000E+00  0.00000000E+00  0.00000000E+00  1.45013346E-01
  0.00000000E+00  0.00000000E+00  0.00000000E+00  0.00000000E+00  0.00000000E+00
  0.00000000E+00  0.00000000E+00  0.00000000E+00  0.00000000E+00  0.00000000E+00
 -2.98060210E-01  0.00000000E+00  0.00000000E+00  0.00000000E+00 -3.83154343E-01
  0.00000000E+00  0.00000000E+00  0.00000000E+00 -3.57022108E-01  0.00000000E+00
  0.00000000E+00  0.00000000E+00  0.00000000E+00  0.00000000E+00  0.00000000E+00
  1.98092234E-02  0.00000000E+00  0.00000000E+00  0.00000000E+00  0.00000000E+00
 -2.98060210E-01  0.00000000E+00  0.00000000E+00  0.00000000E+00 -3.83154343E-01
  0.00000000E+00  0.00000000E+00  0.00000000E+00 -3.57022108E-01  0.00000000E+00
  0.00000000E+00  0.00000000E+00  0.00000000E+00  0.00000000E+00  0.00000000E+00
 -1.98092234E-02  0.00000000E+00  0.00000000E+00  0.00000000E+00  5.50984888E-01
  0.00000000E+00  0.00000000E+00  0.00000000E+00  9.38992540E-01  0.00000000E+00
  0.00000000E+00  0.00000000E+00  1.45013346E-01  0.00000000E+00  0.00000000E+00
  0.00000000E+00  0.00000000E+00  0.00000000E+00  0.00000000E+00  0.00000000E+00
  0.00000000E+00  0.00000000E+00  0.00000000E+00 -2.98060210E-01  0.00000000E+00
  0.00000000E+00  0.00000000E+00 -3.83154343E-01  0.00000000E+00  0.00000000E+00
  0.00000000E+00 -3.57022108E-01  0.00000000E+00  0.00000000E+00  0.00000000E+00
  0.00000000E+00  0.00000000E+00  0.00000000E+00  1.98092234E-02 -2.56968973E-02
  3.78212631E-02  0.00000000E+00  0.00000000E+00 -1.44435134E-01  2.71249599E-01
  0.00000000E+00  0.00000000E+00 -1.50211963E-01 -1.58126770E+00  0.00000000E+00
  0.00000000E+00  1.14923283E+00 -1.38299712E-02 -1.38299712E-02  5.50093768E-03
  0.00000000E+00  0.00000000E+00  0.00000000E+00 -3.20579506E-02 -8.53705139E-02
  0.00000000E+00  0.00000000E+00  0.00000000E+00  1.57536100E+00  0.00000000E+00
  0.00000000E+00  0.00000000E+00  1.76612935E+00  0.00000000E+00  0.00000000E+00