 Entering Gaussian System, Link 0=g16
 Input=CO2_linear_HF.com
 Output=CO2_linear_HF.log
 Initial command:
 /opt/g16/l1.exe "/scratch/Grace/g03/Gau-34885.inp" -scrdir="/scratch/Grace/g03/"
 Entering Link 1 = /opt/g16/l1.exe PID=     34886.
  
 Copyright (c) 1988,1990,1992,1993,1995,1998,2003,2009,2016,
            Gaussian, Inc.  All Rights Reserved.
  
 This is part of the Gaussian(R) 16 program.  It is based on
 the Gaussian(R) 09 system (copyright 2009, Gaussian, Inc.),
 the Gaussian(R) 03 system (copyright 2003, Gaussian, Inc.),
 the Gaussian(R) 98 system (copyright 1998, Gaussian, Inc.),
 the Gaussian(R) 94 system (copyright 1995, Gaussian, Inc.),
 the Gaussian 92(TM) system (copyright 1992, Gaussian, Inc.),
 the Gaussian 90(TM) system (copyright 1990, Gaussian, Inc.),
 the Gaussian 88(TM) system (copyright 1988, Gaussian, Inc.),
 the Gaussian 86(TM) system (copyright 1986, Carnegie Mellon
 University), and the Gaussian 82(TM) system (copyright 1983,
 Carnegie Mellon University). Gaussian is a federally registered
 trademark of Gaussian, Inc.
  
 This software contains proprietary and confidential information,
 including trade secrets, belonging to Gaussian, Inc.
  
 This software is provided under written license and may be
 used, copied, transmitted, or stored only in accord with that
 written license.
  
 The following legend is applicable only to US Government
 contracts under FAR:
  
                    RESTRICTED RIGHTS LEGEND
  
 Use, reproduction and disclosure by the US Government is
 subject to restrictions as set forth in subparagraphs (a)
 and (c) of the Commercial Computer Software - Restricted
 Rights clause in FAR 52.227-19.
  
 Gaussian, Inc.
 340 Quinnipiac St., Bldg. 40, Wallingford CT 06492
  
  
 ---------------------------------------------------------------
 Warning -- This program may not be used in any manner that
 competes with the business of Gaussian, Inc. or will provide
 assistance to any competitor of Gaussian, Inc.  The licensee
 of this program is prohibited from giving any competitor of
 Gaussian, Inc. access to this program.  By using this program,
 the user acknowledges that Gaussian, Inc. is engaged in the
 business of creating and licensing software in the field of
 computational chemistry and represents and warrants to the
 licensee that it is not a competitor of Gaussian, Inc. and that
 it will not use this program in any manner prohibited above.
 ---------------------------------------------------------------
  

 Cite this work as:
 Gaussian 16, Revision A.03,
 M. J. Frisch, G. W. Trucks, H. B. Schlegel, G. E. Scuseria, 
 M. A. Robb, J. R. Cheeseman, G. Scalmani, V. Barone, 
 G. A. Petersson, H. Nakatsuji, X. Li, M. Caricato, A. V. Marenich, 
 J. Bloino, B. G. Janesko, R. Gomperts, B. Mennucci, H. P. Hratchian, 
 J. V. Ortiz, A. F. Izmaylov, J. L. Sonnenberg, D. Williams-Young, 
 F. Ding, F. Lipparini, F. Egidi, J. Goings, B. Peng, A. Petrone, 
 T. Henderson, D. Ranasinghe, V. G. Zakrzewski, J. Gao, N. Rega, 
 G. Zheng, W. Liang, M. Hada, M. Ehara, K. Toyota, R. Fukuda, 
 J. Hasegawa, M. Ishida, T. Nakajima, Y. Honda, O. Kitao, H. Nakai, 
 T. Vreven, K. Throssell, J. A. Montgomery, Jr., J. E. Peralta, 
 F. Ogliaro, M. J. Bearpark, J. J. Heyd, E. N. Brothers, K. N. Kudin, 
 V. N. Staroverov, T. A. Keith, R. Kobayashi, J. Normand, 
 K. Raghavachari, A. P. Rendell, J. C. Burant, S. S. Iyengar, 
 J. Tomasi, M. Cossi, J. M. Millam, M. Klene, C. Adamo, R. Cammi, 
 J. W. Ochterski, R. L. Martin, K. Morokuma, O. Farkas, 
 J. B. Foresman, and D. J. Fox, Gaussian, Inc., Wallingford CT, 2016.
 
 ******************************************
 Gaussian 16:  ES64L-G16RevA.03 25-Dec-2016
                 5-Mar-2020 
 ******************************************
 %chk=CO2_linear_HF.chk
 %mem=300MW
 -----------------------------------------
 #p HF/6-31+G(d) OPT FREQ pop=full Gfprint
 -----------------------------------------
 1/18=20,19=15,38=1/1,3;
 2/9=110,12=2,17=6,18=5,40=1/2;
 3/5=1,6=6,7=11,11=9,24=100,25=1,30=1,71=1/1,2,3;
 4//1;
 5/5=2,38=5/2;
 6/7=3,28=1/1;
 7//1,2,3,16;
 1/18=20,19=15/3(2);
 2/9=110/2;
 99//99;
 2/9=110/2;
 3/5=1,6=6,7=11,11=9,25=1,30=1,71=1/1,2,3;
 4/5=5,16=3,69=1/1;
 5/5=2,38=5/2;
 7//1,2,3,16;
 1/18=20,19=15/3(-5);
 2/9=110/2;
 6/7=3,19=2,28=1/1;
 99/9=1/99;
 Leave Link    1 at Thu Mar  5 22:18:43 2020, MaxMem=   314572800 cpu:               0.0 elap:               0.1
 (Enter /opt/g16/l101.exe)
 -----------
 get orbital
 -----------
 Symbolic Z-matrix:
 Charge =  0 Multiplicity = 1
 O
 C                    1    B
 O                    2    B        1    A
       Variables:
  B                     1.                       
  A                   180.                       
 
 ITRead=  0  0  0
 MicOpt= -1 -1 -1
 NAtoms=      3 NQM=        3 NQMF=       0 NMMI=      0 NMMIF=      0
                NMic=       0 NMicF=      0.
                    Isotopes and Nuclear Properties:
 (Nuclear quadrupole moments (NQMom) in fm**2, nuclear magnetic moments (NMagM)
  in nuclear magnetons)

  Atom         1           2           3
 IAtWgt=          16          12          16
 AtmWgt=  15.9949146  12.0000000  15.9949146
 NucSpn=           0           0           0
 AtZEff=  -0.0000000  -0.0000000  -0.0000000
 NQMom=    0.0000000   0.0000000   0.0000000
 NMagM=    0.0000000   0.0000000   0.0000000
 AtZNuc=   8.0000000   6.0000000   8.0000000
 Leave Link  101 at Thu Mar  5 22:18:44 2020, MaxMem=   314572800 cpu:               0.2 elap:               0.2
 (Enter /opt/g16/l103.exe)

 GradGradGradGradGradGradGradGradGradGradGradGradGradGradGradGradGradGrad
 Berny optimization.
 Initialization pass.
                           ----------------------------
                           !    Initial Parameters    !
                           ! (Angstroms and Degrees)  !
 --------------------------                            --------------------------
 ! Name  Definition              Value          Derivative Info.                !
 --------------------------------------------------------------------------------
 ! R1    R(1,2)                  1.0            estimate D2E/DX2                !
 ! R2    R(2,3)                  1.0            estimate D2E/DX2                !
 ! A1    L(1,2,3,-1,-1)        180.0            estimate D2E/DX2                !
 ! A2    L(1,2,3,-2,-2)        180.0            estimate D2E/DX2                !
 --------------------------------------------------------------------------------
 Trust Radius=3.00D-01 FncErr=1.00D-07 GrdErr=1.00D-07 EigMax=2.50D+02 EigMin=1.00D-04
 Number of steps in this run=     20 maximum allowed number of steps=    100.
 GradGradGradGradGradGradGradGradGradGradGradGradGradGradGradGradGradGrad

 Leave Link  103 at Thu Mar  5 22:18:44 2020, MaxMem=   314572800 cpu:               0.0 elap:               0.1
 (Enter /opt/g16/l202.exe)
                          Input orientation:                          
 ---------------------------------------------------------------------
 Center     Atomic      Atomic             Coordinates (Angstroms)
 Number     Number       Type             X           Y           Z
 ---------------------------------------------------------------------
      1          8           0        0.000000    0.000000    0.000000
      2          6           0        0.000000    0.000000    1.000000
      3          8           0        0.000000    0.000000    2.000000
 ---------------------------------------------------------------------
                    Distance matrix (angstroms):
                    1          2          3
     1  O    0.000000
     2  C    1.000000   0.000000
     3  O    2.000000   1.000000   0.000000
 Stoichiometry    CO2
 Framework group  D*H[O(C),C*(O.O)]
 Deg. of freedom     1
 Full point group                 D*H     NOp   8
 Largest Abelian subgroup         D2H     NOp   8
 Largest concise Abelian subgroup C2      NOp   2
                         Standard orientation:                         
 ---------------------------------------------------------------------
 Center     Atomic      Atomic             Coordinates (Angstroms)
 Number     Number       Type             X           Y           Z
 ---------------------------------------------------------------------
      1          8           0        0.000000    0.000000    1.000000
      2          6           0        0.000000    0.000000    0.000000
      3          8           0        0.000000    0.000000   -1.000000
 ---------------------------------------------------------------------
 Rotational constants (GHZ):           0.0000000          15.7981152          15.7981152
 Leave Link  202 at Thu Mar  5 22:18:45 2020, MaxMem=   314572800 cpu:               0.0 elap:               0.0
 (Enter /opt/g16/l301.exe)
 Standard basis: 6-31+G(d) (6D, 7F)
 Ernie: Thresh=  0.10000D-02 Tol=  0.10000D-05 Strict=F.
 AO basis set (Overlap normalization):
 Atom O1       Shell     1 S   6     bf    1 -     1          0.000000000000          0.000000000000          1.889726124565
      0.5484671660D+04  0.1831074430D-02
      0.8252349460D+03  0.1395017220D-01
      0.1880469580D+03  0.6844507810D-01
      0.5296450000D+02  0.2327143360D+00
      0.1689757040D+02  0.4701928980D+00
      0.5799635340D+01  0.3585208530D+00
 Atom O1       Shell     2 SP   3    bf    2 -     5          0.000000000000          0.000000000000          1.889726124565
      0.1553961625D+02 -0.1107775495D+00  0.7087426823D-01
      0.3599933586D+01 -0.1480262627D+00  0.3397528391D+00
      0.1013761750D+01  0.1130767015D+01  0.7271585773D+00
 Atom O1       Shell     3 SP   1    bf    6 -     9          0.000000000000          0.000000000000          1.889726124565
      0.2700058226D+00  0.1000000000D+01  0.1000000000D+01
 Atom O1       Shell     4 SP   1    bf   10 -    13          0.000000000000          0.000000000000          1.889726124565
      0.8450000000D-01  0.1000000000D+01  0.1000000000D+01
 Atom O1       Shell     5 D   1     bf   14 -    19          0.000000000000          0.000000000000          1.889726124565
      0.8000000000D+00  0.1000000000D+01
 Atom C2       Shell     6 S   6     bf   20 -    20          0.000000000000          0.000000000000          0.000000000000
      0.3047524880D+04  0.1834737132D-02
      0.4573695180D+03  0.1403732281D-01
      0.1039486850D+03  0.6884262226D-01
      0.2921015530D+02  0.2321844432D+00
      0.9286662960D+01  0.4679413484D+00
      0.3163926960D+01  0.3623119853D+00
 Atom C2       Shell     7 SP   3    bf   21 -    24          0.000000000000          0.000000000000          0.000000000000
      0.7868272350D+01 -0.1193324198D+00  0.6899906659D-01
      0.1881288540D+01 -0.1608541517D+00  0.3164239610D+00
      0.5442492580D+00  0.1143456438D+01  0.7443082909D+00
 Atom C2       Shell     8 SP   1    bf   25 -    28          0.000000000000          0.000000000000          0.000000000000
      0.1687144782D+00  0.1000000000D+01  0.1000000000D+01
 Atom C2       Shell     9 SP   1    bf   29 -    32          0.000000000000          0.000000000000          0.000000000000
      0.4380000000D-01  0.1000000000D+01  0.1000000000D+01
 Atom C2       Shell    10 D   1     bf   33 -    38          0.000000000000          0.000000000000          0.000000000000
      0.8000000000D+00  0.1000000000D+01
 Atom O3       Shell    11 S   6     bf   39 -    39          0.000000000000          0.000000000000         -1.889726124565
      0.5484671660D+04  0.1831074430D-02
      0.8252349460D+03  0.1395017220D-01
      0.1880469580D+03  0.6844507810D-01
      0.5296450000D+02  0.2327143360D+00
      0.1689757040D+02  0.4701928980D+00
      0.5799635340D+01  0.3585208530D+00
 Atom O3       Shell    12 SP   3    bf   40 -    43          0.000000000000          0.000000000000         -1.889726124565
      0.1553961625D+02 -0.1107775495D+00  0.7087426823D-01
      0.3599933586D+01 -0.1480262627D+00  0.3397528391D+00
      0.1013761750D+01  0.1130767015D+01  0.7271585773D+00
 Atom O3       Shell    13 SP   1    bf   44 -    47          0.000000000000          0.000000000000         -1.889726124565
      0.2700058226D+00  0.1000000000D+01  0.1000000000D+01
 Atom O3       Shell    14 SP   1    bf   48 -    51          0.000000000000          0.000000000000         -1.889726124565
      0.8450000000D-01  0.1000000000D+01  0.1000000000D+01
 Atom O3       Shell    15 D   1     bf   52 -    57          0.000000000000          0.000000000000         -1.889726124565
      0.8000000000D+00  0.1000000000D+01
 There are    17 symmetry adapted cartesian basis functions of AG  symmetry.
 There are     2 symmetry adapted cartesian basis functions of B1G symmetry.
 There are     5 symmetry adapted cartesian basis functions of B2G symmetry.
 There are     5 symmetry adapted cartesian basis functions of B3G symmetry.
 There are     1 symmetry adapted cartesian basis functions of AU  symmetry.
 There are    13 symmetry adapted cartesian basis functions of B1U symmetry.
 There are     7 symmetry adapted cartesian basis functions of B2U symmetry.
 There are     7 symmetry adapted cartesian basis functions of B3U symmetry.
 There are    17 symmetry adapted basis functions of AG  symmetry.
 There are     2 symmetry adapted basis functions of B1G symmetry.
 There are     5 symmetry adapted basis functions of B2G symmetry.
 There are     5 symmetry adapted basis functions of B3G symmetry.
 There are     1 symmetry adapted basis functions of AU  symmetry.
 There are    13 symmetry adapted basis functions of B1U symmetry.
 There are     7 symmetry adapted basis functions of B2U symmetry.
 There are     7 symmetry adapted basis functions of B3U symmetry.
    57 basis functions,    96 primitive gaussians,    57 cartesian basis functions
    11 alpha electrons       11 beta electrons
       nuclear repulsion energy        67.7346829978 Hartrees.
 IExCor=    0 DFT=F Ex=HF Corr=None ExCW=0 ScaHFX=  1.000000
 ScaDFX=  1.000000  1.000000  1.000000  1.000000 ScalE2=  1.000000  1.000000
 IRadAn=      5 IRanWt=     -1 IRanGd=            0 ICorTp=0 IEmpDi=  4
 NAtoms=    3 NActive=    3 NUniq=    2 SFac= 2.25D+00 NAtFMM=   60 NAOKFM=F Big=F
 Integral buffers will be    131072 words long.
 Raffenetti 1 integral format.
 Two-electron integral symmetry is turned on.
 Leave Link  301 at Thu Mar  5 22:18:45 2020, MaxMem=   314572800 cpu:               0.1 elap:               0.1
 (Enter /opt/g16/l302.exe)
 NPDir=0 NMtPBC=     1 NCelOv=     1 NCel=       1 NClECP=     1 NCelD=      1
         NCelK=      1 NCelE2=     1 NClLst=     1 CellRange=     0.0.
 One-electron integrals computed using PRISM.
 One-electron integral symmetry used in STVInt
 NBasis=    57 RedAO= T EigKep=  6.30D-04  NBF=    17     2     5     5     1    13     7     7
 NBsUse=    57 1.00D-06 EigRej= -1.00D+00 NBFU=    17     2     5     5     1    13     7     7
 Leave Link  302 at Thu Mar  5 22:18:45 2020, MaxMem=   314572800 cpu:               0.2 elap:               0.2
 (Enter /opt/g16/l303.exe)
 DipDrv:  MaxL=1.
 Leave Link  303 at Thu Mar  5 22:18:46 2020, MaxMem=   314572800 cpu:               0.0 elap:               0.1
 (Enter /opt/g16/l401.exe)
 ExpMin= 4.38D-02 ExpMax= 5.48D+03 ExpMxC= 8.25D+02 IAcc=3 IRadAn=         5 AccDes= 0.00D+00
 Harris functional with IExCor=  205 and IRadAn=       5 diagonalized for initial guess.
 HarFok:  IExCor=  205 AccDes= 0.00D+00 IRadAn=         5 IDoV= 1 UseB2=F ITyADJ=14
 ICtDFT=  3500011 ScaDFX=  1.000000  1.000000  1.000000  1.000000
 FoFCou: FMM=F IPFlag=           0 FMFlag=      100000 FMFlg1=           0
         NFxFlg=           0 DoJE=T BraDBF=F KetDBF=T FulRan=T
         wScrn=  0.000000 ICntrl=       500 IOpCl=  0 I1Cent=   200000004 NGrid=           0
         NMat0=    1 NMatS0=      1 NMatT0=    0 NMatD0=    1 NMtDS0=    0 NMtDT0=    0
 Petite list used in FoFCou.
 Harris En= -187.528068795180    
 JPrj=0 DoOrth=F DoCkMO=F.
 Initial guess orbital symmetries:
       Occupied  (SGU) (SGG) (SGG) (SGG) (SGU) (PIU) (PIU) (SGU)
                 (SGG) (PIG) (PIG)
       Virtual   (SGG) (PIU) (PIU) (PIU) (PIU) (SGU) (SGG) (PIG)
                 (PIG) (SGG) (SGU) (PIU) (PIU) (SGU) (SGG) (PIU)
                 (PIU) (SGU) (PIG) (PIG) (SGG) (SGU) (SGG) (PIU)
                 (PIU) (DLTG) (DLTG) (SGU) (PIG) (PIG) (SGG) (DLTU)
                 (DLTU) (DLTG) (DLTG) (SGU) (PIU) (PIU) (PIG) (PIG)
                 (SGU) (SGG) (SGG) (SGG) (SGG) (SGU)
 The electronic state of the initial guess is 1-SGG.
 Leave Link  401 at Thu Mar  5 22:18:46 2020, MaxMem=   314572800 cpu:               0.3 elap:               0.3
 (Enter /opt/g16/l502.exe)
 Keep R1 ints in memory in symmetry-blocked form, NReq=2209503.
 FoFCou: FMM=F IPFlag=           0 FMFlag=           0 FMFlg1=           0
         NFxFlg=           0 DoJE=F BraDBF=F KetDBF=F FulRan=T
         wScrn=  0.000000 ICntrl=       600 IOpCl=  0 I1Cent=           0 NGrid=           0
         NMat0=    1 NMatS0=   1653 NMatT0=    0 NMatD0=    1 NMtDS0=    0 NMtDT0=    0
 Petite list used in FoFCou.
 Closed shell SCF:
 Using DIIS extrapolation, IDIIS=  1040.
 NGot=   314572800 LenX=   314365317 LenY=   314361627
 Requested convergence on RMS density matrix=1.00D-08 within 128 cycles.
 Requested convergence on MAX density matrix=1.00D-06.
 Requested convergence on             energy=1.00D-06.
 No special actions if energy rises.

 Cycle   1  Pass 1  IDiag  1:
 E= -187.389035130941    
 DIIS: error= 6.05D-02 at cycle   1 NSaved=   1.
 NSaved= 1 IEnMin= 1 EnMin= -187.389035130941     IErMin= 1 ErrMin= 6.05D-02
 ErrMax= 6.05D-02  0.00D+00 EMaxC= 1.00D-01 BMatC= 2.37D-01 BMatP= 2.37D-01
 IDIUse=3 WtCom= 3.95D-01 WtEn= 6.05D-01
 Coeff-Com:  0.100D+01
 Coeff-En:   0.100D+01
 Coeff:      0.100D+01
 Gap=     0.557 Goal=   None    Shift=    0.000
 GapD=    0.557 DampG=2.000 DampE=0.500 DampFc=1.0000 IDamp=-1.
 RMSDP=1.27D-02 MaxDP=1.59D-01              OVMax= 8.96D-02

 Cycle   2  Pass 1  IDiag  1:
 E= -187.481386889081     Delta-E=       -0.092351758140 Rises=F Damp=F
 DIIS: error= 2.02D-02 at cycle   2 NSaved=   2.
 NSaved= 2 IEnMin= 2 EnMin= -187.481386889081     IErMin= 2 ErrMin= 2.02D-02
 ErrMax= 2.02D-02  0.00D+00 EMaxC= 1.00D-01 BMatC= 2.40D-02 BMatP= 2.37D-01
 IDIUse=3 WtCom= 7.98D-01 WtEn= 2.02D-01
 Coeff-Com:  0.177D+00 0.823D+00
 Coeff-En:   0.000D+00 0.100D+01
 Coeff:      0.141D+00 0.859D+00
 Gap=     0.636 Goal=   None    Shift=    0.000
 RMSDP=2.43D-03 MaxDP=2.76D-02 DE=-9.24D-02 OVMax= 3.19D-02

 Cycle   3  Pass 1  IDiag  1:
 E= -187.494905974964     Delta-E=       -0.013519085883 Rises=F Damp=F
 DIIS: error= 7.18D-03 at cycle   3 NSaved=   3.
 NSaved= 3 IEnMin= 3 EnMin= -187.494905974964     IErMin= 3 ErrMin= 7.18D-03
 ErrMax= 7.18D-03  0.00D+00 EMaxC= 1.00D-01 BMatC= 2.43D-03 BMatP= 2.40D-02
 IDIUse=3 WtCom= 9.28D-01 WtEn= 7.18D-02
 Coeff-Com: -0.208D-01 0.206D+00 0.815D+00
 Coeff-En:   0.000D+00 0.000D+00 0.100D+01
 Coeff:     -0.193D-01 0.191D+00 0.828D+00
 Gap=     0.619 Goal=   None    Shift=    0.000
 RMSDP=5.37D-04 MaxDP=7.45D-03 DE=-1.35D-02 OVMax= 6.57D-03

 Cycle   4  Pass 1  IDiag  1:
 E= -187.496233113104     Delta-E=       -0.001327138140 Rises=F Damp=F
 DIIS: error= 6.64D-04 at cycle   4 NSaved=   4.
 NSaved= 4 IEnMin= 4 EnMin= -187.496233113104     IErMin= 4 ErrMin= 6.64D-04
 ErrMax= 6.64D-04  0.00D+00 EMaxC= 1.00D-01 BMatC= 2.14D-05 BMatP= 2.43D-03
 IDIUse=3 WtCom= 9.93D-01 WtEn= 6.64D-03
 Coeff-Com: -0.500D-02 0.144D-01 0.111D+00 0.879D+00
 Coeff-En:   0.000D+00 0.000D+00 0.000D+00 0.100D+01
 Coeff:     -0.497D-02 0.143D-01 0.111D+00 0.880D+00
 Gap=     0.617 Goal=   None    Shift=    0.000
 RMSDP=7.52D-05 MaxDP=1.28D-03 DE=-1.33D-03 OVMax= 1.70D-03

 Cycle   5  Pass 1  IDiag  1:
 E= -187.496255628505     Delta-E=       -0.000022515402 Rises=F Damp=F
 DIIS: error= 2.25D-04 at cycle   5 NSaved=   5.
 NSaved= 5 IEnMin= 5 EnMin= -187.496255628505     IErMin= 5 ErrMin= 2.25D-04
 ErrMax= 2.25D-04  0.00D+00 EMaxC= 1.00D-01 BMatC= 1.96D-06 BMatP= 2.14D-05
 IDIUse=3 WtCom= 9.98D-01 WtEn= 2.25D-03
 Coeff-Com:  0.162D-02-0.119D-01-0.694D-01-0.755D-01 0.116D+01
 Coeff-En:   0.000D+00 0.000D+00 0.000D+00 0.000D+00 0.100D+01
 Coeff:      0.162D-02-0.118D-01-0.692D-01-0.753D-01 0.115D+01
 Gap=     0.617 Goal=   None    Shift=    0.000
 RMSDP=4.79D-05 MaxDP=7.59D-04 DE=-2.25D-05 OVMax= 4.31D-04

 Cycle   6  Pass 1  IDiag  1:
 E= -187.496257277283     Delta-E=       -0.000001648778 Rises=F Damp=F
 DIIS: error= 2.01D-05 at cycle   6 NSaved=   6.
 NSaved= 6 IEnMin= 6 EnMin= -187.496257277283     IErMin= 6 ErrMin= 2.01D-05
 ErrMax= 2.01D-05  0.00D+00 EMaxC= 1.00D-01 BMatC= 1.22D-08 BMatP= 1.96D-06
 IDIUse=1 WtCom= 1.00D+00 WtEn= 0.00D+00
 Coeff-Com: -0.278D-03 0.242D-02 0.141D-01 0.950D-02-0.278D+00 0.125D+01
 Coeff:     -0.278D-03 0.242D-02 0.141D-01 0.950D-02-0.278D+00 0.125D+01
 Gap=     0.617 Goal=   None    Shift=    0.000
 RMSDP=5.99D-06 MaxDP=8.49D-05 DE=-1.65D-06 OVMax= 6.36D-05

 Cycle   7  Pass 1  IDiag  1:
 E= -187.496257296154     Delta-E=       -0.000000018871 Rises=F Damp=F
 DIIS: error= 2.01D-06 at cycle   7 NSaved=   7.
 NSaved= 7 IEnMin= 7 EnMin= -187.496257296154     IErMin= 7 ErrMin= 2.01D-06
 ErrMax= 2.01D-06  0.00D+00 EMaxC= 1.00D-01 BMatC= 1.20D-10 BMatP= 1.22D-08
 IDIUse=1 WtCom= 1.00D+00 WtEn= 0.00D+00
 Coeff-Com:  0.343D-04-0.320D-03-0.187D-02-0.879D-03 0.391D-01-0.247D+00
 Coeff-Com:  0.121D+01
 Coeff:      0.343D-04-0.320D-03-0.187D-02-0.879D-03 0.391D-01-0.247D+00
 Coeff:      0.121D+01
 Gap=     0.617 Goal=   None    Shift=    0.000
 RMSDP=6.21D-07 MaxDP=7.76D-06 DE=-1.89D-08 OVMax= 7.27D-06

 Cycle   8  Pass 1  IDiag  1:
 E= -187.496257296344     Delta-E=       -0.000000000190 Rises=F Damp=F
 DIIS: error= 2.47D-07 at cycle   8 NSaved=   8.
 NSaved= 8 IEnMin= 8 EnMin= -187.496257296344     IErMin= 8 ErrMin= 2.47D-07
 ErrMax= 2.47D-07  0.00D+00 EMaxC= 1.00D-01 BMatC= 1.41D-12 BMatP= 1.20D-10
 IDIUse=1 WtCom= 1.00D+00 WtEn= 0.00D+00
 Coeff-Com: -0.587D-05 0.551D-04 0.333D-03 0.113D-03-0.721D-02 0.510D-01
 Coeff-Com: -0.313D+00 0.127D+01
 Coeff:     -0.587D-05 0.551D-04 0.333D-03 0.113D-03-0.721D-02 0.510D-01
 Coeff:     -0.313D+00 0.127D+01
 Gap=     0.617 Goal=   None    Shift=    0.000
 RMSDP=4.86D-08 MaxDP=5.66D-07 DE=-1.90D-10 OVMax= 7.69D-07

 Cycle   9  Pass 1  IDiag  1:
 E= -187.496257296345     Delta-E=       -0.000000000002 Rises=F Damp=F
 DIIS: error= 3.56D-08 at cycle   9 NSaved=   9.
 NSaved= 9 IEnMin= 9 EnMin= -187.496257296345     IErMin= 9 ErrMin= 3.56D-08
 ErrMax= 3.56D-08  0.00D+00 EMaxC= 1.00D-01 BMatC= 2.64D-14 BMatP= 1.41D-12
 IDIUse=1 WtCom= 1.00D+00 WtEn= 0.00D+00
 Coeff-Com:  0.945D-06-0.880D-05-0.565D-04-0.120D-04 0.125D-02-0.932D-02
 Coeff-Com:  0.619D-01-0.332D+00 0.128D+01
 Coeff:      0.945D-06-0.880D-05-0.565D-04-0.120D-04 0.125D-02-0.932D-02
 Coeff:      0.619D-01-0.332D+00 0.128D+01
 Gap=     0.617 Goal=   None    Shift=    0.000
 RMSDP=4.78D-09 MaxDP=6.52D-08 DE=-1.71D-12 OVMax= 9.42D-08

 SCF Done:  E(RHF) =  -187.496257296     A.U. after    9 cycles
            NFock=  9  Conv=0.48D-08     -V/T= 1.9910
 KE= 1.891912235591D+02 PE=-5.794116918810D+02 EE= 1.349895280279D+02
 Leave Link  502 at Thu Mar  5 22:18:47 2020, MaxMem=   314572800 cpu:               0.5 elap:               0.5
 (Enter /opt/g16/l601.exe)
 Copying SCF densities to generalized density rwf, IOpCl= 0 IROHF=0.

 **********************************************************************

            Population analysis using the SCF density.

 **********************************************************************

 Orbital symmetries:
       Occupied  (SGU) (SGG) (SGG) (SGG) (SGU) (PIU) (PIU) (SGG)
                 (SGU) (PIG) (PIG)
       Virtual   (SGG) (PIU) (PIU) (SGU) (SGG) (PIG) (PIG) (SGG)
                 (PIU) (PIU) (SGU) (PIU) (PIU) (SGU) (SGG) (SGU)
                 (PIU) (PIU) (SGG) (PIG) (PIG) (SGU) (SGG) (PIU)
                 (PIU) (DLTG) (DLTG) (SGG) (PIG) (PIG) (SGU) (DLTU)
                 (DLTU) (DLTG) (DLTG) (SGU) (PIU) (PIU) (PIG) (PIG)
                 (SGU) (SGG) (SGG) (SGG) (SGU) (SGG)
 The electronic state is 1-SGG.
 Alpha  occ. eigenvalues --  -20.62753 -20.62749 -11.39741  -1.63166  -1.58363
 Alpha  occ. eigenvalues --   -0.80112  -0.80112  -0.77594  -0.76234  -0.55624
 Alpha  occ. eigenvalues --   -0.55624
 Alpha virt. eigenvalues --    0.06093   0.09199   0.09199   0.10023   0.24955
 Alpha virt. eigenvalues --    0.28104   0.28104   0.30811   0.32476   0.32476
 Alpha virt. eigenvalues --    0.33015   0.37519   0.37519   0.38848   0.65805
 Alpha virt. eigenvalues --    0.86538   0.90393   0.90393   1.31799   1.35811
 Alpha virt. eigenvalues --    1.35811   1.36771   1.38958   1.50044   1.50044
 Alpha virt. eigenvalues --    1.58398   1.58398   1.78976   1.88876   1.88876
 Alpha virt. eigenvalues --    1.93416   1.99846   1.99846   2.51804   2.51804
 Alpha virt. eigenvalues --    2.62930   2.79189   2.79189   3.64048   3.64048
 Alpha virt. eigenvalues --    3.84196   3.92339   4.29187   4.58471   5.71650
 Alpha virt. eigenvalues --    5.85707
     Molecular Orbital Coefficients:
                           1         2         3         4         5
                       (SGU)--O  (SGG)--O  (SGG)--O  (SGG)--O  (SGU)--O
     Eigenvalues --   -20.62753 -20.62749 -11.39741  -1.63166  -1.58363
   1 1   O  1S          0.70320   0.70331  -0.00166  -0.13833  -0.14733
   2        2S          0.01560   0.01666  -0.00025   0.28116   0.31969
   3        2PX         0.00000   0.00000   0.00000   0.00000   0.00000
   4        2PY         0.00000   0.00000   0.00000   0.00000   0.00000
   5        2PZ        -0.00193  -0.00306  -0.00095  -0.13453  -0.14767
   6        3S          0.00228   0.00584  -0.00070   0.23212   0.08212
   7        3PX         0.00000   0.00000   0.00000   0.00000   0.00000
   8        3PY         0.00000   0.00000   0.00000   0.00000   0.00000
   9        3PZ         0.00055  -0.00143   0.00093  -0.04188   0.04022
  10        4S         -0.00342   0.00007   0.00344  -0.00840  -0.09658
  11        4PX         0.00000   0.00000   0.00000   0.00000   0.00000
  12        4PY         0.00000   0.00000   0.00000   0.00000   0.00000
  13        4PZ         0.00048  -0.00013  -0.00154  -0.00086  -0.00326
  14        5XX        -0.00314  -0.00332  -0.00050  -0.00407  -0.00175
  15        5YY        -0.00314  -0.00332  -0.00050  -0.00407  -0.00175
  16        5ZZ        -0.00221  -0.00158   0.00083   0.01899   0.01769
  17        5XY         0.00000   0.00000   0.00000   0.00000   0.00000
  18        5XZ         0.00000   0.00000   0.00000   0.00000   0.00000
  19        5YZ         0.00000   0.00000   0.00000   0.00000   0.00000
  20 2   C  1S          0.00000  -0.00047   0.99465  -0.19314   0.00000
  21        2S          0.00000  -0.00254   0.03126   0.31755   0.00000
  22        2PX         0.00000   0.00000   0.00000   0.00000   0.00000
  23        2PY         0.00000   0.00000   0.00000   0.00000   0.00000
  24        2PZ        -0.00140   0.00000   0.00000   0.00000   0.40961
  25        3S          0.00000  -0.00398  -0.00954   0.01345   0.00000
  26        3PX         0.00000   0.00000   0.00000   0.00000   0.00000
  27        3PY         0.00000   0.00000   0.00000   0.00000   0.00000
  28        3PZ         0.00291   0.00000   0.00000   0.00000   0.15504
  29        4S          0.00000   0.00007  -0.00214   0.01085   0.00000
  30        4PX         0.00000   0.00000   0.00000   0.00000   0.00000
  31        4PY         0.00000   0.00000   0.00000   0.00000   0.00000
  32        4PZ         0.00087   0.00000   0.00000   0.00000   0.04056
  33        5XX         0.00000   0.00053  -0.00435  -0.03308   0.00000
  34        5YY         0.00000   0.00053  -0.00435  -0.03308   0.00000
  35        5ZZ         0.00000  -0.00411   0.00097   0.04344   0.00000
  36        5XY         0.00000   0.00000   0.00000   0.00000   0.00000
  37        5XZ         0.00000   0.00000   0.00000   0.00000   0.00000
  38        5YZ         0.00000   0.00000   0.00000   0.00000   0.00000
  39 3   O  1S         -0.70320   0.70331  -0.00166  -0.13833   0.14733
  40        2S         -0.01560   0.01666  -0.00025   0.28116  -0.31969
  41        2PX         0.00000   0.00000   0.00000   0.00000   0.00000
  42        2PY         0.00000   0.00000   0.00000   0.00000   0.00000
  43        2PZ        -0.00193   0.00306   0.00095   0.13453  -0.14767
  44        3S         -0.00228   0.00584  -0.00070   0.23212  -0.08212
  45        3PX         0.00000   0.00000   0.00000   0.00000   0.00000
  46        3PY         0.00000   0.00000   0.00000   0.00000   0.00000
  47        3PZ         0.00055   0.00143  -0.00093   0.04188   0.04022
  48        4S          0.00342   0.00007   0.00344  -0.00840   0.09658
  49        4PX         0.00000   0.00000   0.00000   0.00000   0.00000
  50        4PY         0.00000   0.00000   0.00000   0.00000   0.00000
  51        4PZ         0.00048   0.00013   0.00154   0.00086  -0.00326
  52        5XX         0.00314  -0.00332  -0.00050  -0.00407   0.00175
  53        5YY         0.00314  -0.00332  -0.00050  -0.00407   0.00175
  54        5ZZ         0.00221  -0.00158   0.00083   0.01899  -0.01769
  55        5XY         0.00000   0.00000   0.00000   0.00000   0.00000
  56        5XZ         0.00000   0.00000   0.00000   0.00000   0.00000
  57        5YZ         0.00000   0.00000   0.00000   0.00000   0.00000
                           6         7         8         9        10
                       (PIU)--O  (PIU)--O  (SGG)--O  (SGU)--O  (PIG)--O
     Eigenvalues --    -0.80112  -0.80112  -0.77594  -0.76234  -0.55624
   1 1   O  1S          0.00000   0.00000  -0.08171  -0.06937   0.00000
   2        2S          0.00000   0.00000   0.19780   0.15070   0.00000
   3        2PX         0.35935   0.00000   0.00000   0.00000   0.45989
   4        2PY         0.00000   0.35935   0.00000   0.00000   0.00000
   5        2PZ         0.00000   0.00000   0.36809   0.40158   0.00000
   6        3S          0.00000   0.00000   0.33099   0.49187   0.00000
   7        3PX         0.19944   0.00000   0.00000   0.00000   0.32039
   8        3PY         0.00000   0.19944   0.00000   0.00000   0.00000
   9        3PZ         0.00000   0.00000   0.16158   0.10045   0.00000
  10        4S          0.00000   0.00000   0.04108   0.19477   0.00000
  11        4PX        -0.00065   0.00000   0.00000   0.00000   0.03120
  12        4PY         0.00000  -0.00065   0.00000   0.00000   0.00000
  13        4PZ         0.00000   0.00000   0.00352  -0.02802   0.00000
  14        5XX         0.00000   0.00000   0.01055   0.00718   0.00000
  15        5YY         0.00000   0.00000   0.01055   0.00718   0.00000
  16        5ZZ         0.00000   0.00000  -0.01858  -0.02331   0.00000
  17        5XY         0.00000   0.00000   0.00000   0.00000   0.00000
  18        5XZ        -0.03680   0.00000   0.00000   0.00000  -0.02404
  19        5YZ         0.00000  -0.03680   0.00000   0.00000   0.00000
  20 2   C  1S          0.00000   0.00000   0.13055   0.00000   0.00000
  21        2S          0.00000   0.00000  -0.27710   0.00000   0.00000
  22        2PX         0.38865   0.00000   0.00000   0.00000   0.00000
  23        2PY         0.00000   0.38865   0.00000   0.00000   0.00000
  24        2PZ         0.00000   0.00000   0.00000  -0.35134   0.00000
  25        3S          0.00000   0.00000  -0.18049   0.00000   0.00000
  26        3PX         0.07057   0.00000   0.00000   0.00000   0.00000
  27        3PY         0.00000   0.07057   0.00000   0.00000   0.00000
  28        3PZ         0.00000   0.00000   0.00000  -0.27460   0.00000
  29        4S          0.00000   0.00000   0.00291   0.00000   0.00000
  30        4PX         0.01741   0.00000   0.00000   0.00000   0.00000
  31        4PY         0.00000   0.01741   0.00000   0.00000   0.00000
  32        4PZ         0.00000   0.00000   0.00000  -0.02154   0.00000
  33        5XX         0.00000   0.00000   0.01720   0.00000   0.00000
  34        5YY         0.00000   0.00000   0.01720   0.00000   0.00000
  35        5ZZ         0.00000   0.00000  -0.00935   0.00000   0.00000
  36        5XY         0.00000   0.00000   0.00000   0.00000   0.00000
  37        5XZ         0.00000   0.00000   0.00000   0.00000   0.08788
  38        5YZ         0.00000   0.00000   0.00000   0.00000   0.00000
  39 3   O  1S          0.00000   0.00000  -0.08171   0.06937   0.00000
  40        2S          0.00000   0.00000   0.19780  -0.15070   0.00000
  41        2PX         0.35935   0.00000   0.00000   0.00000  -0.45989
  42        2PY         0.00000   0.35935   0.00000   0.00000   0.00000
  43        2PZ         0.00000   0.00000  -0.36809   0.40158   0.00000
  44        3S          0.00000   0.00000   0.33099  -0.49187   0.00000
  45        3PX         0.19944   0.00000   0.00000   0.00000  -0.32039
  46        3PY         0.00000   0.19944   0.00000   0.00000   0.00000
  47        3PZ         0.00000   0.00000  -0.16158   0.10045   0.00000
  48        4S          0.00000   0.00000   0.04108  -0.19477   0.00000
  49        4PX        -0.00065   0.00000   0.00000   0.00000  -0.03120
  50        4PY         0.00000  -0.00065   0.00000   0.00000   0.00000
  51        4PZ         0.00000   0.00000  -0.00352  -0.02802   0.00000
  52        5XX         0.00000   0.00000   0.01055  -0.00718   0.00000
  53        5YY         0.00000   0.00000   0.01055  -0.00718   0.00000
  54        5ZZ         0.00000   0.00000  -0.01858   0.02331   0.00000
  55        5XY         0.00000   0.00000   0.00000   0.00000   0.00000
  56        5XZ         0.03680   0.00000   0.00000   0.00000  -0.02404
  57        5YZ         0.00000   0.03680   0.00000   0.00000   0.00000
                          11        12        13        14        15
                       (PIG)--O  (SGG)--V  (PIU)--V  (PIU)--V  (SGU)--V
     Eigenvalues --    -0.55624   0.06093   0.09199   0.09199   0.10023
   1 1   O  1S          0.00000   0.02530   0.00000   0.00000  -0.01737
   2        2S          0.00000  -0.08568   0.00000   0.00000   0.02751
   3        2PX         0.00000   0.00000  -0.06030   0.00000   0.00000
   4        2PY         0.45989   0.00000   0.00000  -0.06030   0.00000
   5        2PZ         0.00000   0.00681   0.00000   0.00000   0.05200
   6        3S          0.00000  -0.16201   0.00000   0.00000   0.49549
   7        3PX         0.00000   0.00000   0.02070   0.00000   0.00000
   8        3PY         0.32039   0.00000   0.00000   0.02070   0.00000
   9        3PZ         0.00000   0.12582   0.00000   0.00000  -0.21379
  10        4S          0.00000  -1.48551   0.00000   0.00000   2.73296
  11        4PX         0.00000   0.00000  -0.56126   0.00000   0.00000
  12        4PY         0.03120   0.00000   0.00000  -0.56126   0.00000
  13        4PZ         0.00000   0.20854   0.00000   0.00000  -0.16023
  14        5XX         0.00000  -0.00122   0.00000   0.00000  -0.00073
  15        5YY         0.00000  -0.00122   0.00000   0.00000  -0.00073
  16        5ZZ         0.00000  -0.02345   0.00000   0.00000   0.00718
  17        5XY         0.00000   0.00000   0.00000   0.00000   0.00000
  18        5XZ         0.00000   0.00000   0.00641   0.00000   0.00000
  19        5YZ        -0.02404   0.00000   0.00000   0.00641   0.00000
  20 2   C  1S          0.00000  -0.00287   0.00000   0.00000   0.00000
  21        2S          0.00000  -0.02387   0.00000   0.00000   0.00000
  22        2PX         0.00000   0.00000  -0.06826   0.00000   0.00000
  23        2PY         0.00000   0.00000   0.00000  -0.06826   0.00000
  24        2PZ         0.00000   0.00000   0.00000   0.00000  -0.05732
  25        3S          0.00000   1.04374   0.00000   0.00000   0.00000
  26        3PX         0.00000   0.00000   0.02745   0.00000   0.00000
  27        3PY         0.00000   0.00000   0.00000   0.02745   0.00000
  28        3PZ         0.00000   0.00000   0.00000   0.00000  -1.16710
  29        4S          0.00000   2.87086   0.00000   0.00000   0.00000
  30        4PX         0.00000   0.00000   1.77117   0.00000   0.00000
  31        4PY         0.00000   0.00000   0.00000   1.77117   0.00000
  32        4PZ         0.00000   0.00000   0.00000   0.00000  -2.50515
  33        5XX         0.00000  -0.00044   0.00000   0.00000   0.00000
  34        5YY         0.00000  -0.00044   0.00000   0.00000   0.00000
  35        5ZZ         0.00000  -0.00520   0.00000   0.00000   0.00000
  36        5XY         0.00000   0.00000   0.00000   0.00000   0.00000
  37        5XZ         0.00000   0.00000   0.00000   0.00000   0.00000
  38        5YZ         0.08788   0.00000   0.00000   0.00000   0.00000
  39 3   O  1S          0.00000   0.02530   0.00000   0.00000   0.01737
  40        2S          0.00000  -0.08568   0.00000   0.00000  -0.02751
  41        2PX         0.00000   0.00000  -0.06030   0.00000   0.00000
  42        2PY        -0.45989   0.00000   0.00000  -0.06030   0.00000
  43        2PZ         0.00000  -0.00681   0.00000   0.00000   0.05200
  44        3S          0.00000  -0.16201   0.00000   0.00000  -0.49549
  45        3PX         0.00000   0.00000   0.02070   0.00000   0.00000
  46        3PY        -0.32039   0.00000   0.00000   0.02070   0.00000
  47        3PZ         0.00000  -0.12582   0.00000   0.00000  -0.21379
  48        4S          0.00000  -1.48551   0.00000   0.00000  -2.73296
  49        4PX         0.00000   0.00000  -0.56126   0.00000   0.00000
  50        4PY        -0.03120   0.00000   0.00000  -0.56126   0.00000
  51        4PZ         0.00000  -0.20854   0.00000   0.00000  -0.16023
  52        5XX         0.00000  -0.00122   0.00000   0.00000   0.00073
  53        5YY         0.00000  -0.00122   0.00000   0.00000   0.00073
  54        5ZZ         0.00000  -0.02345   0.00000   0.00000  -0.00718
  55        5XY         0.00000   0.00000   0.00000   0.00000   0.00000
  56        5XZ         0.00000   0.00000  -0.00641   0.00000   0.00000
  57        5YZ        -0.02404   0.00000   0.00000  -0.00641   0.00000
                          16        17        18        19        20
                       (SGG)--V  (PIG)--V  (PIG)--V  (SGG)--V  (PIU)--V
     Eigenvalues --     0.24955   0.28104   0.28104   0.30811   0.32476
   1 1   O  1S         -0.01764   0.00000   0.00000  -0.07896   0.00000
   2        2S          0.04942   0.00000   0.00000   0.04413   0.00000
   3        2PX         0.00000   0.00000  -0.10897   0.00000   0.00000
   4        2PY         0.00000  -0.10897   0.00000   0.00000  -0.11056
   5        2PZ        -0.10090   0.00000   0.00000   0.00009   0.00000
   6        3S         -0.03911   0.00000   0.00000   0.89294   0.00000
   7        3PX         0.00000   0.00000  -0.35079   0.00000   0.00000
   8        3PY         0.00000  -0.35079   0.00000   0.00000  -0.11894
   9        3PZ         0.00909   0.00000   0.00000   0.32741   0.00000
  10        4S         -1.49826   0.00000   0.00000  -3.21139   0.00000
  11        4PX         0.00000   0.00000   1.27448   0.00000   0.00000
  12        4PY         0.00000   1.27448   0.00000   0.00000  -1.58140
  13        4PZ         1.19997   0.00000   0.00000  -0.15521   0.00000
  14        5XX        -0.00111   0.00000   0.00000  -0.04234   0.00000
  15        5YY        -0.00111   0.00000   0.00000  -0.04234   0.00000
  16        5ZZ         0.00939   0.00000   0.00000  -0.08639   0.00000
  17        5XY         0.00000   0.00000   0.00000   0.00000   0.00000
  18        5XZ         0.00000   0.00000   0.02768   0.00000   0.00000
  19        5YZ         0.00000   0.02768   0.00000   0.00000  -0.02623
  20 2   C  1S         -0.04890   0.00000   0.00000   0.03064   0.00000
  21        2S         -0.03196   0.00000   0.00000   0.07193   0.00000
  22        2PX         0.00000   0.00000   0.00000   0.00000   0.00000
  23        2PY         0.00000   0.00000   0.00000   0.00000   0.38251
  24        2PZ         0.00000   0.00000   0.00000   0.00000   0.00000
  25        3S          2.25894   0.00000   0.00000   1.12114   0.00000
  26        3PX         0.00000   0.00000   0.00000   0.00000   0.00000
  27        3PY         0.00000   0.00000   0.00000   0.00000   1.14231
  28        3PZ         0.00000   0.00000   0.00000   0.00000   0.00000
  29        4S          1.48722   0.00000   0.00000   3.37415   0.00000
  30        4PX         0.00000   0.00000   0.00000   0.00000   0.00000
  31        4PY         0.00000   0.00000   0.00000   0.00000   1.62896
  32        4PZ         0.00000   0.00000   0.00000   0.00000   0.00000
  33        5XX        -0.05910   0.00000   0.00000  -0.04841   0.00000
  34        5YY        -0.05910   0.00000   0.00000  -0.04841   0.00000
  35        5ZZ         0.03790   0.00000   0.00000   0.08818   0.00000
  36        5XY         0.00000   0.00000   0.00000   0.00000   0.00000
  37        5XZ         0.00000   0.00000   0.00992   0.00000   0.00000
  38        5YZ         0.00000   0.00992   0.00000   0.00000   0.00000
  39 3   O  1S         -0.01764   0.00000   0.00000  -0.07896   0.00000
  40        2S          0.04942   0.00000   0.00000   0.04413   0.00000
  41        2PX         0.00000   0.00000   0.10897   0.00000   0.00000
  42        2PY         0.00000   0.10897   0.00000   0.00000  -0.11056
  43        2PZ         0.10090   0.00000   0.00000  -0.00009   0.00000
  44        3S         -0.03911   0.00000   0.00000   0.89294   0.00000
  45        3PX         0.00000   0.00000   0.35079   0.00000   0.00000
  46        3PY         0.00000   0.35079   0.00000   0.00000  -0.11894
  47        3PZ        -0.00909   0.00000   0.00000  -0.32741   0.00000
  48        4S         -1.49826   0.00000   0.00000  -3.21139   0.00000
  49        4PX         0.00000   0.00000  -1.27448   0.00000   0.00000
  50        4PY         0.00000  -1.27448   0.00000   0.00000  -1.58140
  51        4PZ        -1.19997   0.00000   0.00000   0.15521   0.00000
  52        5XX        -0.00111   0.00000   0.00000  -0.04234   0.00000
  53        5YY        -0.00111   0.00000   0.00000  -0.04234   0.00000
  54        5ZZ         0.00939   0.00000   0.00000  -0.08639   0.00000
  55        5XY         0.00000   0.00000   0.00000   0.00000   0.00000
  56        5XZ         0.00000   0.00000   0.02768   0.00000   0.00000
  57        5YZ         0.00000   0.02768   0.00000   0.00000   0.02623
                          21        22        23        24        25
                       (PIU)--V  (SGU)--V  (PIU)--V  (PIU)--V  (SGU)--V
     Eigenvalues --     0.32476   0.33015   0.37519   0.37519   0.38848
   1 1   O  1S          0.00000  -0.01572   0.00000   0.00000   0.04352
   2        2S          0.00000  -0.08872   0.00000   0.00000  -0.13062
   3        2PX        -0.11056   0.00000   0.00000   0.32426   0.00000
   4        2PY         0.00000   0.00000   0.32426   0.00000   0.00000
   5        2PZ         0.00000   0.02783   0.00000   0.00000  -0.08176
   6        3S          0.00000   1.29066   0.00000   0.00000   0.57718
   7        3PX        -0.11894   0.00000   0.00000   0.65978   0.00000
   8        3PY         0.00000   0.00000   0.65978   0.00000   0.00000
   9        3PZ         0.00000  -0.27892   0.00000   0.00000  -0.79129
  10        4S          0.00000   5.54507   0.00000   0.00000   6.38304
  11        4PX        -1.58140   0.00000   0.00000  -0.91320   0.00000
  12        4PY         0.00000   0.00000  -0.91320   0.00000   0.00000
  13        4PZ         0.00000  -3.91820   0.00000   0.00000  -0.49789
  14        5XX         0.00000  -0.02075   0.00000   0.00000   0.00855
  15        5YY         0.00000  -0.02075   0.00000   0.00000   0.00855
  16        5ZZ         0.00000  -0.04345   0.00000   0.00000   0.04258
  17        5XY         0.00000   0.00000   0.00000   0.00000   0.00000
  18        5XZ        -0.02623   0.00000   0.00000   0.00683   0.00000
  19        5YZ         0.00000   0.00000   0.00683   0.00000   0.00000
  20 2   C  1S          0.00000   0.00000   0.00000   0.00000   0.00000
  21        2S          0.00000   0.00000   0.00000   0.00000   0.00000
  22        2PX         0.38251   0.00000   0.00000  -0.33730   0.00000
  23        2PY         0.00000   0.00000  -0.33730   0.00000   0.00000
  24        2PZ         0.00000  -0.06756   0.00000   0.00000  -0.06357
  25        3S          0.00000   0.00000   0.00000   0.00000   0.00000
  26        3PX         1.14231   0.00000   0.00000  -0.72390   0.00000
  27        3PY         0.00000   0.00000  -0.72390   0.00000   0.00000
  28        3PZ         0.00000  -2.84760   0.00000   0.00000  -3.05043
  29        4S          0.00000   0.00000   0.00000   0.00000   0.00000
  30        4PX         1.62896   0.00000   0.00000   1.20579   0.00000
  31        4PY         0.00000   0.00000   1.20579   0.00000   0.00000
  32        4PZ         0.00000   1.10091   0.00000   0.00000  -2.67068
  33        5XX         0.00000   0.00000   0.00000   0.00000   0.00000
  34        5YY         0.00000   0.00000   0.00000   0.00000   0.00000
  35        5ZZ         0.00000   0.00000   0.00000   0.00000   0.00000
  36        5XY         0.00000   0.00000   0.00000   0.00000   0.00000
  37        5XZ         0.00000   0.00000   0.00000   0.00000   0.00000
  38        5YZ         0.00000   0.00000   0.00000   0.00000   0.00000
  39 3   O  1S          0.00000   0.01572   0.00000   0.00000  -0.04352
  40        2S          0.00000   0.08872   0.00000   0.00000   0.13062
  41        2PX        -0.11056   0.00000   0.00000   0.32426   0.00000
  42        2PY         0.00000   0.00000   0.32426   0.00000   0.00000
  43        2PZ         0.00000   0.02783   0.00000   0.00000  -0.08176
  44        3S          0.00000  -1.29066   0.00000   0.00000  -0.57718
  45        3PX        -0.11894   0.00000   0.00000   0.65978   0.00000
  46        3PY         0.00000   0.00000   0.65978   0.00000   0.00000
  47        3PZ         0.00000  -0.27892   0.00000   0.00000  -0.79129
  48        4S          0.00000  -5.54507   0.00000   0.00000  -6.38304
  49        4PX        -1.58140   0.00000   0.00000  -0.91320   0.00000
  50        4PY         0.00000   0.00000  -0.91320   0.00000   0.00000
  51        4PZ         0.00000  -3.91820   0.00000   0.00000  -0.49789
  52        5XX         0.00000   0.02075   0.00000   0.00000  -0.00855
  53        5YY         0.00000   0.02075   0.00000   0.00000  -0.00855
  54        5ZZ         0.00000   0.04345   0.00000   0.00000  -0.04258
  55        5XY         0.00000   0.00000   0.00000   0.00000   0.00000
  56        5XZ         0.02623   0.00000   0.00000  -0.00683   0.00000
  57        5YZ         0.00000   0.00000  -0.00683   0.00000   0.00000
                          26        27        28        29        30
                       (SGG)--V  (SGU)--V  (PIU)--V  (PIU)--V  (SGG)--V
     Eigenvalues --     0.65805   0.86538   0.90393   0.90393   1.31799
   1 1   O  1S          0.05827   0.08355   0.00000   0.00000  -0.02078
   2        2S         -0.09758   0.11797   0.00000   0.00000   0.35619
   3        2PX         0.00000   0.00000   0.11382   0.00000   0.00000
   4        2PY         0.00000   0.00000   0.00000   0.11382   0.00000
   5        2PZ         0.30538  -0.00116   0.00000   0.00000   0.03459
   6        3S         -1.74239  -5.40395   0.00000   0.00000  -0.92409
   7        3PX         0.00000   0.00000  -0.20479   0.00000   0.00000
   8        3PY         0.00000   0.00000   0.00000  -0.20479   0.00000
   9        3PZ         1.33875   1.08354   0.00000   0.00000  -0.45967
  10        4S         -3.60606  -8.02784   0.00000   0.00000  -0.76427
  11        4PX         0.00000   0.00000  -1.02643   0.00000   0.00000
  12        4PY         0.00000   0.00000   0.00000  -1.02643   0.00000
  13        4PZ         0.92853   2.70778   0.00000   0.00000   0.76867
  14        5XX         0.03083   0.09892   0.00000   0.00000   0.18973
  15        5YY         0.03083   0.09892   0.00000   0.00000   0.18973
  16        5ZZ        -0.06282   0.00101   0.00000   0.00000  -0.12185
  17        5XY         0.00000   0.00000   0.00000   0.00000   0.00000
  18        5XZ         0.00000   0.00000   0.09132   0.00000   0.00000
  19        5YZ         0.00000   0.00000   0.00000   0.09132   0.00000
  20 2   C  1S         -0.08245   0.00000   0.00000   0.00000   0.01572
  21        2S          0.06073   0.00000   0.00000   0.00000  -1.74062
  22        2PX         0.00000   0.00000  -1.05248   0.00000   0.00000
  23        2PY         0.00000   0.00000   0.00000  -1.05248   0.00000
  24        2PZ         0.00000  -0.19707   0.00000   0.00000   0.00000
  25        3S          8.72522   0.00000   0.00000   0.00000   3.64611
  26        3PX         0.00000   0.00000   2.28466   0.00000   0.00000
  27        3PY         0.00000   0.00000   0.00000   2.28466   0.00000
  28        3PZ         0.00000  10.12934   0.00000   0.00000   0.00000
  29        4S          2.40013   0.00000   0.00000   0.00000   0.35667
  30        4PX         0.00000   0.00000   0.61685   0.00000   0.00000
  31        4PY         0.00000   0.00000   0.00000   0.61685   0.00000
  32        4PZ         0.00000   0.71588   0.00000   0.00000   0.00000
  33        5XX         0.00493   0.00000   0.00000   0.00000  -0.15395
  34        5YY         0.00493   0.00000   0.00000   0.00000  -0.15395
  35        5ZZ        -0.01992   0.00000   0.00000   0.00000   0.12580
  36        5XY         0.00000   0.00000   0.00000   0.00000   0.00000
  37        5XZ         0.00000   0.00000   0.00000   0.00000   0.00000
  38        5YZ         0.00000   0.00000   0.00000   0.00000   0.00000
  39 3   O  1S          0.05827  -0.08355   0.00000   0.00000  -0.02078
  40        2S         -0.09758  -0.11797   0.00000   0.00000   0.35619
  41        2PX         0.00000   0.00000   0.11382   0.00000   0.00000
  42        2PY         0.00000   0.00000   0.00000   0.11382   0.00000
  43        2PZ        -0.30538  -0.00116   0.00000   0.00000  -0.03459
  44        3S         -1.74239   5.40395   0.00000   0.00000  -0.92409
  45        3PX         0.00000   0.00000  -0.20479   0.00000   0.00000
  46        3PY         0.00000   0.00000   0.00000  -0.20479   0.00000
  47        3PZ        -1.33875   1.08354   0.00000   0.00000   0.45967
  48        4S         -3.60606   8.02784   0.00000   0.00000  -0.76427
  49        4PX         0.00000   0.00000  -1.02643   0.00000   0.00000
  50        4PY         0.00000   0.00000   0.00000  -1.02643   0.00000
  51        4PZ        -0.92853   2.70778   0.00000   0.00000  -0.76867
  52        5XX         0.03083  -0.09892   0.00000   0.00000   0.18973
  53        5YY         0.03083  -0.09892   0.00000   0.00000   0.18973
  54        5ZZ        -0.06282  -0.00101   0.00000   0.00000  -0.12185
  55        5XY         0.00000   0.00000   0.00000   0.00000   0.00000
  56        5XZ         0.00000   0.00000  -0.09132   0.00000   0.00000
  57        5YZ         0.00000   0.00000   0.00000  -0.09132   0.00000
                          31        32        33        34        35
                       (PIG)--V  (PIG)--V  (SGU)--V  (SGG)--V  (PIU)--V
     Eigenvalues --     1.35811   1.35811   1.36771   1.38958   1.50044
   1 1   O  1S          0.00000   0.00000   0.05678  -0.00905   0.00000
   2        2S          0.00000   0.00000  -0.27706  -0.16597   0.00000
   3        2PX         0.00000  -0.59991   0.00000   0.00000   0.00000
   4        2PY        -0.59991   0.00000   0.00000   0.00000  -0.69563
   5        2PZ         0.00000   0.00000  -0.26360  -0.45475   0.00000
   6        3S          0.00000   0.00000  -2.81538  -1.91577   0.00000
   7        3PX         0.00000   1.17300   0.00000   0.00000   0.00000
   8        3PY         1.17300   0.00000   0.00000   0.00000   1.36057
   9        3PZ         0.00000   0.00000   2.33320   2.44783   0.00000
  10        4S          0.00000   0.00000  -4.45971  -3.30632   0.00000
  11        4PX         0.00000  -0.68588   0.00000   0.00000   0.00000
  12        4PY        -0.68588   0.00000   0.00000   0.00000  -0.82293
  13        4PZ         0.00000   0.00000  -0.06449   0.37019   0.00000
  14        5XX         0.00000   0.00000  -0.11039   0.00685   0.00000
  15        5YY         0.00000   0.00000  -0.11039   0.00685   0.00000
  16        5ZZ         0.00000   0.00000  -0.01365  -0.31588   0.00000
  17        5XY         0.00000   0.00000   0.00000   0.00000   0.00000
  18        5XZ         0.00000  -0.01560   0.00000   0.00000   0.00000
  19        5YZ        -0.01560   0.00000   0.00000   0.00000   0.06831
  20 2   C  1S          0.00000   0.00000   0.00000   0.19067   0.00000
  21        2S          0.00000   0.00000   0.00000   0.29544   0.00000
  22        2PX         0.00000   0.00000   0.00000   0.00000   0.00000
  23        2PY         0.00000   0.00000   0.00000   0.00000  -0.07849
  24        2PZ         0.00000   0.00000   0.91043   0.00000   0.00000
  25        3S          0.00000   0.00000   0.00000   8.86696   0.00000
  26        3PX         0.00000   0.00000   0.00000   0.00000   0.00000
  27        3PY         0.00000   0.00000   0.00000   0.00000  -0.54318
  28        3PZ         0.00000   0.00000   5.36480   0.00000   0.00000
  29        4S          0.00000   0.00000   0.00000   2.05018   0.00000
  30        4PX         0.00000   0.00000   0.00000   0.00000   0.00000
  31        4PY         0.00000   0.00000   0.00000   0.00000   0.80798
  32        4PZ         0.00000   0.00000   1.65881   0.00000   0.00000
  33        5XX         0.00000   0.00000   0.00000  -0.27678   0.00000
  34        5YY         0.00000   0.00000   0.00000  -0.27678   0.00000
  35        5ZZ         0.00000   0.00000   0.00000   0.51625   0.00000
  36        5XY         0.00000   0.00000   0.00000   0.00000   0.00000
  37        5XZ         0.00000  -0.33224   0.00000   0.00000   0.00000
  38        5YZ        -0.33224   0.00000   0.00000   0.00000   0.00000
  39 3   O  1S          0.00000   0.00000  -0.05678  -0.00905   0.00000
  40        2S          0.00000   0.00000   0.27706  -0.16597   0.00000
  41        2PX         0.00000   0.59991   0.00000   0.00000   0.00000
  42        2PY         0.59991   0.00000   0.00000   0.00000  -0.69563
  43        2PZ         0.00000   0.00000  -0.26360   0.45475   0.00000
  44        3S          0.00000   0.00000   2.81538  -1.91577   0.00000
  45        3PX         0.00000  -1.17300   0.00000   0.00000   0.00000
  46        3PY        -1.17300   0.00000   0.00000   0.00000   1.36057
  47        3PZ         0.00000   0.00000   2.33320  -2.44783   0.00000
  48        4S          0.00000   0.00000   4.45971  -3.30632   0.00000
  49        4PX         0.00000   0.68588   0.00000   0.00000   0.00000
  50        4PY         0.68588   0.00000   0.00000   0.00000  -0.82293
  51        4PZ         0.00000   0.00000  -0.06449  -0.37019   0.00000
  52        5XX         0.00000   0.00000   0.11039   0.00685   0.00000
  53        5YY         0.00000   0.00000   0.11039   0.00685   0.00000
  54        5ZZ         0.00000   0.00000   0.01365  -0.31588   0.00000
  55        5XY         0.00000   0.00000   0.00000   0.00000   0.00000
  56        5XZ         0.00000  -0.01560   0.00000   0.00000   0.00000
  57        5YZ        -0.01560   0.00000   0.00000   0.00000  -0.06831
                          36        37        38        39        40
                       (PIU)--V  (DLTG)--  (DLTG)--  (SGG)--V  (PIG)--V
     Eigenvalues --     1.50044   1.58398   1.58398   1.78976   1.88876
   1 1   O  1S          0.00000   0.00000   0.00000   0.07825   0.00000
   2        2S          0.00000   0.00000   0.00000   1.26639   0.00000
   3        2PX        -0.69563   0.00000   0.00000   0.00000   0.29425
   4        2PY         0.00000   0.00000   0.00000   0.00000   0.00000
   5        2PZ         0.00000   0.00000   0.00000   0.08289   0.00000
   6        3S          0.00000  -0.00000   0.00000  -4.87424   0.00000
   7        3PX         1.36057   0.00000   0.00000   0.00000  -0.12179
   8        3PY         0.00000   0.00000   0.00000   0.00000   0.00000
   9        3PZ         0.00000  -0.00000   0.00000   1.44229   0.00000
  10        4S          0.00000   0.00000   0.00000   0.09224   0.00000
  11        4PX        -0.82293   0.00000   0.00000   0.00000  -0.00138
  12        4PY         0.00000   0.00000   0.00000   0.00000   0.00000
  13        4PZ         0.00000  -0.00000   0.00000   0.26595   0.00000
  14        5XX         0.00000   0.33028   0.00000   0.22175   0.00000
  15        5YY         0.00000  -0.33028   0.00000   0.22175   0.00000
  16        5ZZ         0.00000   0.00000   0.00000   0.49600   0.00000
  17        5XY         0.00000   0.00000   0.38138   0.00000   0.00000
  18        5XZ         0.06831   0.00000   0.00000   0.00000   0.51726
  19        5YZ         0.00000   0.00000   0.00000   0.00000   0.00000
  20 2   C  1S          0.00000  -0.00000   0.00000   0.05875   0.00000
  21        2S          0.00000   0.00000   0.00000   0.62559   0.00000
  22        2PX        -0.07849   0.00000   0.00000   0.00000   0.00000
  23        2PY         0.00000   0.00000   0.00000   0.00000   0.00000
  24        2PZ         0.00000   0.00000   0.00000   0.00000   0.00000
  25        3S          0.00000  -0.00000   0.00000   6.14379   0.00000
  26        3PX        -0.54318   0.00000   0.00000   0.00000   0.00000
  27        3PY         0.00000   0.00000   0.00000   0.00000   0.00000
  28        3PZ         0.00000   0.00000   0.00000   0.00000   0.00000
  29        4S          0.00000  -0.00000   0.00000  -0.54074   0.00000
  30        4PX         0.80798   0.00000   0.00000   0.00000   0.00000
  31        4PY         0.00000   0.00000   0.00000   0.00000   0.00000
  32        4PZ         0.00000   0.00000   0.00000   0.00000   0.00000
  33        5XX         0.00000   0.58744   0.00000  -0.14832   0.00000
  34        5YY         0.00000  -0.58744   0.00000  -0.14832   0.00000
  35        5ZZ         0.00000  -0.00000   0.00000   0.24151   0.00000
  36        5XY         0.00000   0.00000   0.67832   0.00000   0.00000
  37        5XZ         0.00000   0.00000   0.00000   0.00000  -0.35429
  38        5YZ         0.00000   0.00000   0.00000   0.00000   0.00000
  39 3   O  1S          0.00000   0.00000   0.00000   0.07825   0.00000
  40        2S          0.00000   0.00000   0.00000   1.26639   0.00000
  41        2PX        -0.69563   0.00000   0.00000   0.00000  -0.29425
  42        2PY         0.00000   0.00000   0.00000   0.00000   0.00000
  43        2PZ         0.00000  -0.00000   0.00000  -0.08289   0.00000
  44        3S          0.00000  -0.00000   0.00000  -4.87424   0.00000
  45        3PX         1.36057   0.00000   0.00000   0.00000   0.12179
  46        3PY         0.00000   0.00000   0.00000   0.00000   0.00000
  47        3PZ         0.00000   0.00000   0.00000  -1.44229   0.00000
  48        4S          0.00000   0.00000   0.00000   0.09224   0.00000
  49        4PX        -0.82293   0.00000   0.00000   0.00000   0.00138
  50        4PY         0.00000   0.00000   0.00000   0.00000   0.00000
  51        4PZ         0.00000   0.00000   0.00000  -0.26595   0.00000
  52        5XX         0.00000   0.33028   0.00000   0.22175   0.00000
  53        5YY         0.00000  -0.33028   0.00000   0.22175   0.00000
  54        5ZZ         0.00000   0.00000   0.00000   0.49600   0.00000
  55        5XY         0.00000   0.00000   0.38138   0.00000   0.00000
  56        5XZ        -0.06831   0.00000   0.00000   0.00000   0.51726
  57        5YZ         0.00000   0.00000   0.00000   0.00000   0.00000
                          41        42        43        44        45
                       (PIG)--V  (SGU)--V  (DLTU)--  (DLTU)--  (DLTG)--
     Eigenvalues --     1.88876   1.93416   1.99846   1.99846   2.51804
   1 1   O  1S          0.00000   0.08448  -0.00000   0.00000   0.00000
   2        2S          0.00000   0.30440  -0.00000   0.00000   0.00000
   3        2PX         0.00000   0.00000   0.00000   0.00000   0.00000
   4        2PY         0.29425   0.00000   0.00000   0.00000   0.00000
   5        2PZ         0.00000   0.66174  -0.00000   0.00000   0.00000
   6        3S          0.00000  -3.74547   0.00000   0.00000  -0.00000
   7        3PX         0.00000   0.00000   0.00000   0.00000   0.00000
   8        3PY        -0.12179   0.00000   0.00000   0.00000   0.00000
   9        3PZ         0.00000   0.12597   0.00000   0.00000   0.00000
  10        4S          0.00000  -1.30614  -0.00000   0.00000  -0.00000
  11        4PX         0.00000   0.00000   0.00000   0.00000   0.00000
  12        4PY        -0.00138   0.00000   0.00000   0.00000   0.00000
  13        4PZ         0.00000   0.90202   0.00000   0.00000   0.00000
  14        5XX         0.00000  -0.01660   0.61339   0.00000  -0.55948
  15        5YY         0.00000  -0.01660  -0.61339   0.00000   0.55948
  16        5ZZ         0.00000   0.50529  -0.00000   0.00000  -0.00000
  17        5XY         0.00000   0.00000   0.00000   0.70828   0.00000
  18        5XZ         0.00000   0.00000   0.00000   0.00000   0.00000
  19        5YZ         0.51726   0.00000   0.00000   0.00000   0.00000
  20 2   C  1S          0.00000   0.00000   0.00000   0.00000   0.00000
  21        2S          0.00000   0.00000   0.00000   0.00000   0.00000
  22        2PX         0.00000   0.00000   0.00000   0.00000   0.00000
  23        2PY         0.00000   0.00000   0.00000   0.00000   0.00000
  24        2PZ         0.00000   0.82635  -0.00000   0.00000   0.00000
  25        3S          0.00000   0.00000   0.00000   0.00000   0.00000
  26        3PX         0.00000   0.00000   0.00000   0.00000   0.00000
  27        3PY         0.00000   0.00000   0.00000   0.00000   0.00000
  28        3PZ         0.00000   3.96674   0.00000   0.00000   0.00000
  29        4S          0.00000   0.00000   0.00000   0.00000   0.00000
  30        4PX         0.00000   0.00000   0.00000   0.00000   0.00000
  31        4PY         0.00000   0.00000   0.00000   0.00000   0.00000
  32        4PZ         0.00000  -0.34577   0.00000   0.00000   0.00000
  33        5XX         0.00000   0.00000   0.00000   0.00000   0.70846
  34        5YY         0.00000   0.00000   0.00000   0.00000  -0.70846
  35        5ZZ         0.00000   0.00000   0.00000   0.00000   0.00000
  36        5XY         0.00000   0.00000   0.00000   0.00000   0.00000
  37        5XZ         0.00000   0.00000   0.00000   0.00000   0.00000
  38        5YZ        -0.35429   0.00000   0.00000   0.00000   0.00000
  39 3   O  1S          0.00000  -0.08448   0.00000   0.00000   0.00000
  40        2S          0.00000  -0.30440   0.00000   0.00000   0.00000
  41        2PX         0.00000   0.00000   0.00000   0.00000   0.00000
  42        2PY        -0.29425   0.00000   0.00000   0.00000   0.00000
  43        2PZ         0.00000   0.66174  -0.00000   0.00000  -0.00000
  44        3S          0.00000   3.74547  -0.00000   0.00000  -0.00000
  45        3PX         0.00000   0.00000   0.00000   0.00000   0.00000
  46        3PY         0.12179   0.00000   0.00000   0.00000   0.00000
  47        3PZ         0.00000   0.12597   0.00000   0.00000  -0.00000
  48        4S          0.00000   1.30614   0.00000   0.00000  -0.00000
  49        4PX         0.00000   0.00000   0.00000   0.00000   0.00000
  50        4PY         0.00138   0.00000   0.00000   0.00000   0.00000
  51        4PZ         0.00000   0.90202   0.00000   0.00000  -0.00000
  52        5XX         0.00000   0.01660  -0.61339   0.00000  -0.55948
  53        5YY         0.00000   0.01660   0.61339   0.00000   0.55948
  54        5ZZ         0.00000  -0.50529   0.00000   0.00000  -0.00000
  55        5XY         0.00000   0.00000   0.00000  -0.70828   0.00000
  56        5XZ         0.00000   0.00000   0.00000   0.00000   0.00000
  57        5YZ         0.51726   0.00000   0.00000   0.00000   0.00000
                          46        47        48        49        50
                       (DLTG)--  (SGU)--V  (PIU)--V  (PIU)--V  (PIG)--V
     Eigenvalues --     2.51804   2.62930   2.79189   2.79189   3.64048
   1 1   O  1S          0.00000   0.05662   0.00000   0.00000   0.00000
   2        2S          0.00000   1.84202   0.00000   0.00000   0.00000
   3        2PX         0.00000   0.00000   0.00000   0.08675  -0.41247
   4        2PY         0.00000   0.00000   0.08675   0.00000   0.00000
   5        2PZ         0.00000  -0.35994   0.00000   0.00000   0.00000
   6        3S          0.00000  -8.65828   0.00000   0.00000   0.00000
   7        3PX         0.00000   0.00000   0.00000  -0.62778  -0.52408
   8        3PY         0.00000   0.00000  -0.62778   0.00000   0.00000
   9        3PZ         0.00000   2.20686   0.00000   0.00000   0.00000
  10        4S          0.00000  -5.46994   0.00000   0.00000   0.00000
  11        4PX         0.00000   0.00000   0.00000   0.04481   0.17203
  12        4PY         0.00000   0.00000   0.04481   0.00000   0.00000
  13        4PZ         0.00000   1.61823   0.00000   0.00000   0.00000
  14        5XX         0.00000   0.06239   0.00000   0.00000   0.00000
  15        5YY         0.00000   0.06239   0.00000   0.00000   0.00000
  16        5ZZ         0.00000   0.26412   0.00000   0.00000   0.00000
  17        5XY        -0.64603   0.00000   0.00000   0.00000   0.00000
  18        5XZ         0.00000   0.00000   0.00000   0.89404   1.03740
  19        5YZ         0.00000   0.00000   0.89404   0.00000   0.00000
  20 2   C  1S          0.00000   0.00000   0.00000   0.00000   0.00000
  21        2S          0.00000   0.00000   0.00000   0.00000   0.00000
  22        2PX         0.00000   0.00000   0.00000   0.91199   0.00000
  23        2PY         0.00000   0.00000   0.91199   0.00000   0.00000
  24        2PZ         0.00000  -0.18817   0.00000   0.00000   0.00000
  25        3S          0.00000   0.00000   0.00000   0.00000   0.00000
  26        3PX         0.00000   0.00000   0.00000   0.53971   0.00000
  27        3PY         0.00000   0.00000   0.53971   0.00000   0.00000
  28        3PZ         0.00000  10.66045   0.00000   0.00000   0.00000
  29        4S          0.00000   0.00000   0.00000   0.00000   0.00000
  30        4PX         0.00000   0.00000   0.00000  -0.08079   0.00000
  31        4PY         0.00000   0.00000  -0.08079   0.00000   0.00000
  32        4PZ         0.00000   0.50563   0.00000   0.00000   0.00000
  33        5XX         0.00000   0.00000   0.00000   0.00000   0.00000
  34        5YY         0.00000   0.00000   0.00000   0.00000   0.00000
  35        5ZZ         0.00000   0.00000   0.00000   0.00000   0.00000
  36        5XY         0.81806   0.00000   0.00000   0.00000   0.00000
  37        5XZ         0.00000   0.00000   0.00000   0.00000   1.83560
  38        5YZ         0.00000   0.00000   0.00000   0.00000   0.00000
  39 3   O  1S          0.00000  -0.05662   0.00000   0.00000   0.00000
  40        2S          0.00000  -1.84202   0.00000   0.00000   0.00000
  41        2PX         0.00000   0.00000   0.00000   0.08675   0.41247
  42        2PY         0.00000   0.00000   0.08675   0.00000   0.00000
  43        2PZ         0.00000  -0.35994   0.00000   0.00000   0.00000
  44        3S          0.00000   8.65828   0.00000   0.00000   0.00000
  45        3PX         0.00000   0.00000   0.00000  -0.62778   0.52408
  46        3PY         0.00000   0.00000  -0.62778   0.00000   0.00000
  47        3PZ         0.00000   2.20686   0.00000   0.00000   0.00000
  48        4S          0.00000   5.46994   0.00000   0.00000   0.00000
  49        4PX         0.00000   0.00000   0.00000   0.04481  -0.17203
  50        4PY         0.00000   0.00000   0.04481   0.00000   0.00000
  51        4PZ         0.00000   1.61823   0.00000   0.00000   0.00000
  52        5XX         0.00000  -0.06239   0.00000   0.00000   0.00000
  53        5YY         0.00000  -0.06239   0.00000   0.00000   0.00000
  54        5ZZ         0.00000  -0.26412   0.00000   0.00000   0.00000
  55        5XY        -0.64603   0.00000   0.00000   0.00000   0.00000
  56        5XZ         0.00000   0.00000   0.00000  -0.89404   1.03740
  57        5YZ         0.00000   0.00000  -0.89404   0.00000   0.00000
                          51        52        53        54        55
                       (PIG)--V  (SGU)--V  (SGG)--V  (SGG)--V  (SGG)--V
     Eigenvalues --     3.64048   3.84196   3.92339   4.29187   4.58471
   1 1   O  1S          0.00000   0.03352   0.02044   0.04836  -0.43941
   2        2S          0.00000   0.52876  -0.96225   0.08263  -0.72526
   3        2PX         0.00000   0.00000   0.00000   0.00000   0.00000
   4        2PY        -0.41247   0.00000   0.00000   0.00000   0.00000
   5        2PZ         0.00000   0.39050   0.17701   0.49419   0.21979
   6        3S          0.00000  -5.16956   2.21534  -3.29838   6.30534
   7        3PX         0.00000   0.00000   0.00000   0.00000   0.00000
   8        3PY        -0.52408   0.00000   0.00000   0.00000   0.00000
   9        3PZ         0.00000   2.53661  -1.92265   2.11261  -1.50591
  10        4S          0.00000  -3.04889   0.21814  -1.55828  -0.75370
  11        4PX         0.00000   0.00000   0.00000   0.00000   0.00000
  12        4PY         0.17203   0.00000   0.00000   0.00000   0.00000
  13        4PZ         0.00000   0.31970   0.29159   0.26335  -0.06388
  14        5XX         0.00000   0.42915  -0.15087   0.51298  -1.51292
  15        5YY         0.00000   0.42915  -0.15087   0.51298  -1.51292
  16        5ZZ         0.00000  -1.23486   0.96025  -1.00878  -1.14081
  17        5XY         0.00000   0.00000   0.00000   0.00000   0.00000
  18        5XZ         0.00000   0.00000   0.00000   0.00000   0.00000
  19        5YZ         1.03740   0.00000   0.00000   0.00000   0.00000
  20 2   C  1S          0.00000   0.00000  -0.59585   0.08731  -0.23339
  21        2S          0.00000   0.00000  -1.64162   5.33335  -0.32054
  22        2PX         0.00000   0.00000   0.00000   0.00000   0.00000
  23        2PY         0.00000   0.00000   0.00000   0.00000   0.00000
  24        2PZ         0.00000   2.63027   0.00000   0.00000   0.00000
  25        3S          0.00000   0.00000  -2.03271   6.65448  -4.35174
  26        3PX         0.00000   0.00000   0.00000   0.00000   0.00000
  27        3PY         0.00000   0.00000   0.00000   0.00000   0.00000
  28        3PZ         0.00000   5.40717   0.00000   0.00000   0.00000
  29        4S          0.00000   0.00000  -0.04984   0.82629   0.83011
  30        4PX         0.00000   0.00000   0.00000   0.00000   0.00000
  31        4PY         0.00000   0.00000   0.00000   0.00000   0.00000
  32        4PZ         0.00000   0.75737   0.00000   0.00000   0.00000
  33        5XX         0.00000   0.00000  -0.93820  -1.66945  -0.52841
  34        5YY         0.00000   0.00000  -0.93820  -1.66945  -0.52841
  35        5ZZ         0.00000   0.00000  -0.05795  -0.26826  -0.08923
  36        5XY         0.00000   0.00000   0.00000   0.00000   0.00000
  37        5XZ         0.00000   0.00000   0.00000   0.00000   0.00000
  38        5YZ         1.83560   0.00000   0.00000   0.00000   0.00000
  39 3   O  1S          0.00000  -0.03352   0.02044   0.04836  -0.43941
  40        2S          0.00000  -0.52876  -0.96225   0.08263  -0.72526
  41        2PX         0.00000   0.00000   0.00000   0.00000   0.00000
  42        2PY         0.41247   0.00000   0.00000   0.00000   0.00000
  43        2PZ         0.00000   0.39050  -0.17701  -0.49419  -0.21979
  44        3S          0.00000   5.16956   2.21534  -3.29838   6.30534
  45        3PX         0.00000   0.00000   0.00000   0.00000   0.00000
  46        3PY         0.52408   0.00000   0.00000   0.00000   0.00000
  47        3PZ         0.00000   2.53661   1.92265  -2.11261   1.50591
  48        4S          0.00000   3.04889   0.21814  -1.55828  -0.75370
  49        4PX         0.00000   0.00000   0.00000   0.00000   0.00000
  50        4PY        -0.17203   0.00000   0.00000   0.00000   0.00000
  51        4PZ         0.00000   0.31970  -0.29159  -0.26335   0.06388
  52        5XX         0.00000  -0.42915  -0.15087   0.51298  -1.51292
  53        5YY         0.00000  -0.42915  -0.15087   0.51298  -1.51292
  54        5ZZ         0.00000   1.23486   0.96025  -1.00878  -1.14081
  55        5XY         0.00000   0.00000   0.00000   0.00000   0.00000
  56        5XZ         0.00000   0.00000   0.00000   0.00000   0.00000
  57        5YZ         1.03740   0.00000   0.00000   0.00000   0.00000
                          56        57
                       (SGU)--V  (SGG)--V
     Eigenvalues --     5.71650   5.85707
   1 1   O  1S         -0.60492  -0.15315
   2        2S         -1.75791  -1.34821
   3        2PX         0.00000   0.00000
   4        2PY         0.00000   0.00000
   5        2PZ         0.28802   1.31326
   6        3S         14.55667  -0.81743
   7        3PX         0.00000   0.00000
   8        3PY         0.00000   0.00000
   9        3PZ        -2.84455   1.25100
  10        4S          4.64448  -0.54032
  11        4PX         0.00000   0.00000
  12        4PY         0.00000   0.00000
  13        4PZ        -1.79743  -0.16502
  14        5XX        -1.90193  -0.02723
  15        5YY        -1.90193  -0.02723
  16        5ZZ        -1.64311  -0.94347
  17        5XY         0.00000   0.00000
  18        5XZ         0.00000   0.00000
  19        5YZ         0.00000   0.00000
  20 2   C  1S          0.00000   0.56201
  21        2S          0.00000   0.57586
  22        2PX         0.00000   0.00000
  23        2PY         0.00000   0.00000
  24        2PZ        -0.06326   0.00000
  25        3S          0.00000   1.47101
  26        3PX         0.00000   0.00000
  27        3PY         0.00000   0.00000
  28        3PZ       -12.68935   0.00000
  29        4S          0.00000   0.35068
  30        4PX         0.00000   0.00000
  31        4PY         0.00000   0.00000
  32        4PZ        -0.00533   0.00000
  33        5XX         0.00000   0.40354
  34        5YY         0.00000   0.40354
  35        5ZZ         0.00000   3.96101
  36        5XY         0.00000   0.00000
  37        5XZ         0.00000   0.00000
  38        5YZ         0.00000   0.00000
  39 3   O  1S          0.60492  -0.15315
  40        2S          1.75791  -1.34821
  41        2PX         0.00000   0.00000
  42        2PY         0.00000   0.00000
  43        2PZ         0.28802  -1.31326
  44        3S        -14.55667  -0.81743
  45        3PX         0.00000   0.00000
  46        3PY         0.00000   0.00000
  47        3PZ        -2.84455  -1.25100
  48        4S         -4.64448  -0.54032
  49        4PX         0.00000   0.00000
  50        4PY         0.00000   0.00000
  51        4PZ        -1.79743   0.16502
  52        5XX         1.90193  -0.02723
  53        5YY         1.90193  -0.02723
  54        5ZZ         1.64311  -0.94347
  55        5XY         0.00000   0.00000
  56        5XZ         0.00000   0.00000
  57        5YZ         0.00000   0.00000
     Density Matrix:
                           1         2         3         4         5
   1 1   O  1S          2.08295
   2        2S         -0.17985   0.48722
   3        2PX        -0.00000   0.00000   0.68126
   4        2PY        -0.00000   0.00000   0.00000   0.68126
   5        2PZ        -0.04215   0.09642  -0.00000  -0.00000   0.67335
   6        3S         -0.19933   0.46248   0.00000   0.00000   0.55197
   7        3PX        -0.00000   0.00000   0.43803   0.00000  -0.00000
   8        3PY        -0.00000   0.00000   0.00000   0.43803  -0.00000
   9        3PZ        -0.04186   0.09633  -0.00000  -0.00000   0.19902
  10        4S         -0.00767   0.00837   0.00000   0.00000   0.21746
  11        4PX         0.00000  -0.00000   0.02822   0.00000  -0.00000
  12        4PY         0.00000  -0.00000   0.00000   0.02822  -0.00000
  13        4PZ         0.00502  -0.00961  -0.00000  -0.00000  -0.01872
  14        5XX        -0.01017   0.00272  -0.00000   0.00000   0.01517
  15        5YY        -0.01017   0.00272   0.00000  -0.00000   0.01517
  16        5ZZ        -0.00953   0.00749   0.00000   0.00000  -0.04272
  17        5XY         0.00000   0.00000  -0.00000  -0.00000   0.00000
  18        5XZ         0.00000   0.00000  -0.04856   0.00000  -0.00000
  19        5YZ         0.00000   0.00000   0.00000  -0.04856  -0.00000
  20 2   C  1S          0.02813  -0.05747   0.00000   0.00000   0.14619
  21        2S         -0.04625   0.06885  -0.00000  -0.00000  -0.28948
  22        2PX        -0.00000   0.00000   0.27932   0.00000  -0.00000
  23        2PY        -0.00000   0.00000   0.00000   0.27932  -0.00000
  24        2PZ        -0.07392   0.15596  -0.00000  -0.00000  -0.40315
  25        3S          0.02021  -0.06397  -0.00000  -0.00000  -0.13645
  26        3PX        -0.00000   0.00000   0.05072   0.00000  -0.00000
  27        3PY        -0.00000   0.00000   0.00000   0.05072  -0.00000
  28        3PZ        -0.00349   0.01646  -0.00000  -0.00000  -0.26635
  29        4S         -0.00338   0.00726  -0.00000  -0.00000  -0.00077
  30        4PX        -0.00000   0.00000   0.01251   0.00000  -0.00000
  31        4PY        -0.00000   0.00000   0.00000   0.01251  -0.00000
  32        4PZ        -0.00774   0.01947  -0.00000  -0.00000  -0.02929
  33        5XX         0.00710  -0.01178   0.00000   0.00000   0.02156
  34        5YY         0.00710  -0.01178   0.00000   0.00000   0.02156
  35        5ZZ        -0.01627   0.02059  -0.00000  -0.00000  -0.01855
  36        5XY         0.00000   0.00000   0.00000   0.00000   0.00000
  37        5XZ        -0.00000   0.00000   0.08083   0.00000  -0.00000
  38        5YZ        -0.00000   0.00000   0.00000   0.08083  -0.00000
  39 3   O  1S         -0.00111   0.00649  -0.00000  -0.00000  -0.01231
  40        2S          0.00649  -0.01342   0.00000   0.00000   0.04331
  41        2PX         0.00000  -0.00000  -0.16474   0.00000   0.00000
  42        2PY         0.00000  -0.00000   0.00000  -0.16474   0.00000
  43        2PZ         0.01231  -0.04331   0.00000   0.00000   0.05895
  44        3S         -0.02087   0.06083  -0.00000  -0.00000  -0.18961
  45        3PX        -0.00000   0.00000  -0.15136   0.00000   0.00000
  46        3PY        -0.00000   0.00000   0.00000  -0.15136   0.00000
  47        3PZ        -0.00818   0.01569   0.00000   0.00000  -0.06143
  48        4S         -0.00092   0.01468  -0.00000  -0.00000  -0.15247
  49        4PX         0.00000  -0.00000  -0.02916   0.00000   0.00000
  50        4PY         0.00000  -0.00000   0.00000  -0.02916   0.00000
  51        4PZ         0.00603  -0.01142   0.00000   0.00000  -0.02437
  52        5XX        -0.00037   0.00083   0.00000   0.00000   0.00258
  53        5YY        -0.00037   0.00083   0.00000   0.00000   0.00258
  54        5ZZ         0.00066  -0.00094  -0.00000  -0.00000   0.00516
  55        5XY         0.00000   0.00000   0.00000   0.00000   0.00000
  56        5XZ         0.00000  -0.00000   0.00433   0.00000  -0.00000
  57        5YZ         0.00000  -0.00000   0.00000   0.00433  -0.00000
                           6         7         8         9        10
   6        3S          0.82430
   7        3PX         0.00000   0.28485
   8        3PY         0.00000   0.00000   0.28485
   9        3PZ         0.19292  -0.00000  -0.00000   0.07914
  10        4S          0.19901   0.00000   0.00000   0.04534   0.09809
  11        4PX        -0.00000   0.01973   0.00000  -0.00000  -0.00000
  12        4PY        -0.00000   0.00000   0.01973  -0.00000  -0.00000
  13        4PZ        -0.02617  -0.00000  -0.00000  -0.00468  -0.01000
  14        5XX         0.01182  -0.00000   0.00000   0.00506   0.00409
  15        5YY         0.01182   0.00000  -0.00000   0.00506   0.00409
  16        5ZZ        -0.02354   0.00000   0.00000  -0.01085  -0.01432
  17        5XY         0.00000  -0.00000  -0.00000   0.00000   0.00000
[...]
         wScrn=  0.000000 ICntrl=    100127 IOpCl=  0 I1Cent=           0 NGrid=           0
         NMat0=    1 NMatS0=      1 NMatT0=    0 NMatD0=    1 NMtDS0=    0 NMtDT0=    0
 Petite list used in FoFCou.
 Leave Link  703 at Thu Mar  5 22:19:04 2020, MaxMem=   314572800 cpu:               1.0 elap:               1.0
 (Enter /opt/g16/l716.exe)
 Dipole        =-1.39120312D-16-7.41031639D-34 1.48230766D-21
 Polarizability= 8.35205985D+00 0.00000000D+00 8.35205985D+00
                -9.68996921D-16 0.00000000D+00 2.30155870D+01
 HyperPolar    =-1.13974121D-15-2.92441801D-16-3.90281982D-16
                -8.77325404D-16-2.67424692D-14 3.61912035D-31
                -2.20138376D-14 3.20979327D-16-2.67590391D-15
                 2.21357996D-13
 Full mass-weighted force constant matrix:
 Low frequencies ---   -4.3113   -4.3113    0.0011    0.0018    0.0018  749.4794
 Low frequencies ---  749.4794 1510.8755 2564.0973
 Diagonal vibrational polarizability:
        3.3158581       3.3158581       4.5125153
 Diagonal vibrational hyperpolarizability:
        0.0000000       0.0000000       0.0000010
 Harmonic frequencies (cm**-1), IR intensities (KM/Mole), Raman scattering
 activities (A**4/AMU), depolarization ratios for plane and unpolarized
 incident light, reduced masses (AMU), force constants (mDyne/A),
 and normal coordinates:
                      1                      2                      3
                     PIU                    PIU                    SGG
 Frequencies --    749.4794               749.4794              1510.8755
 Red. masses --     12.8774                12.8774                15.9949
 Frc consts  --      4.2618                 4.2618                21.5124
 IR Inten    --     69.2121                69.2121                 0.0000
 Raman Activ --      0.0000                 0.0000                15.0073
 Depolar (P) --      0.0000                 0.0000                 0.1539
 Depolar (U) --      0.0000                 0.0000                 0.2667
  Atom  AN      X      Y      Z        X      Y      Z        X      Y      Z
     1   8    -0.33   0.00  -0.00    -0.00  -0.33   0.00    -0.00   0.00   0.71
     2   6     0.88  -0.00  -0.00     0.00   0.88  -0.00     0.00  -0.00  -0.00
     3   8    -0.33   0.00   0.00    -0.00  -0.33  -0.00    -0.00   0.00  -0.71
                      4
                     SGU
 Frequencies --   2564.0973
 Red. masses --     12.8774
 Frc consts  --     49.8823
 IR Inten    --   1102.4389
 Raman Activ --      0.0000
 Depolar (P) --      0.0000
 Depolar (U) --      0.0000
  Atom  AN      X      Y      Z
     1   8    -0.00  -0.00  -0.33
     2   6     0.00   0.00   0.88
     3   8    -0.00  -0.00  -0.33

 -------------------
 - Thermochemistry -
 -------------------
 Temperature   298.150 Kelvin.  Pressure   1.00000 Atm.
 Atom     1 has atomic number  8 and mass  15.99491
 Atom     2 has atomic number  6 and mass  12.00000
 Atom     3 has atomic number  8 and mass  15.99491
 Molecular mass:    43.98983 amu.
 Principal axes and moments of inertia in atomic units:
                           1         2         3
     Eigenvalues --     0.00000 149.33698 149.33698
           X           -0.00000   1.00000  -0.00000
           Y            0.00000   0.00000   1.00000
           Z            1.00000   0.00000  -0.00000
 This molecule is a prolate symmetric top.
 Rotational symmetry number  2.
 Rotational temperature (Kelvin)      0.57999
 Rotational constant (GHZ):          12.085026
 Zero-point vibrational energy      33339.5 (Joules/Mol)
                                    7.96834 (Kcal/Mol)
 Vibrational temperatures:   1078.33  1078.33  2173.81  3689.16
          (Kelvin)
 
 Zero-point correction=                           0.012698 (Hartree/Particle)
 Thermal correction to Energy=                    0.015252
 Thermal correction to Enthalpy=                  0.016196
 Thermal correction to Gibbs Free Energy=        -0.007941
 Sum of electronic and zero-point Energies=           -187.626088
 Sum of electronic and thermal Energies=              -187.623535
 Sum of electronic and thermal Enthalpies=            -187.622590
 Sum of electronic and thermal Free Energies=         -187.646728
 
                     E (Thermal)             CV                S
                      KCal/Mol        Cal/Mol-Kelvin    Cal/Mol-Kelvin
 Total                    9.571              6.517             50.801
 Electronic               0.000              0.000              0.000
 Translational            0.889              2.981             37.270
 Rotational               0.592              1.987             13.015
 Vibrational              8.090              1.549              0.517
                       Q            Log10(Q)             Ln(Q)
 Total Bot       0.449358D+04          3.652592          8.410405
 Total V=0       0.311475D+10          9.493423         21.859414
 Vib (Bot)       0.152449D-05         -5.816874        -13.393848
 Vib (V=0)       0.105671D+01          0.023956          0.055161
 Electronic      0.100000D+01          0.000000          0.000000
 Translational   0.114679D+08          7.059482         16.255059
 Rotational      0.257030D+03          2.409984          5.549194
 
                                                             get orbital
                                                             IR Spectrum
 
     2                                                    1                                                                          
     5                                                    5                                    7                                     
     6                                                    1                                    4                                     
     4                                                    1                                    9                                     
 
     X                                                                                         X                                     
     X                                                                                         X                                     
     X                                                                                         X                                     
     X                                                                                                                               
     X                                                                                                                               
     X                                                                                                                               
     X                                                                                                                               
     X                                                                                                                               
     X                                                                                                                               
     X                                                                                                                               
     X                                                                                                                               
     X                                                                                                                               
     X                                                                                                                               
     X                                                                                                                               
     X                                                                                                                               
     X                                                                                                                               
     X                                                                                                                               
     X                                                                                                                               
     X                                                                                                                               
     X                                                                                                                               
 
 
                                                             get orbital
                                                            Raman Spectrum
 
     2                                                    1                                                                          
     5                                                    5                                    7                                     
     6                                                    1                                    4                                     
     4                                                    1                                    9                                     
 
                                                          X                                                                          
                                                          X                                                                          
                                                          X                                                                          
                                                          X                                                                          
                                                          X                                                                          
                                                          X                                                                          
                                                          X                                                                          
                                                          X                                                                          
                                                          X                                                                          
                                                          X                                                                          
                                                          X                                                                          
                                                          X                                                                          
                                                          X                                                                          
                                                          X                                                                          
                                                          X                                                                          
                                                          X                                                                          
                                                          X                                                                          
                                                          X                                                                          
                                                          X                                                                          
                                                          X                                                                          
 
 ***** Axes restored to original set *****
 -------------------------------------------------------------------
 Center     Atomic                   Forces (Hartrees/Bohr)
 Number     Number              X              Y              Z
 -------------------------------------------------------------------
      1        8          -0.000000000   -0.000000000   -0.000024294
      2        6           0.000000000   -0.000000000    0.000000000
      3        8          -0.000000000    0.000000000    0.000024294
 -------------------------------------------------------------------
 Cartesian Forces:  Max     0.000024294 RMS     0.000011452
 Force constants in Cartesian coordinates: 
                1             2             3             4             5 
      1  0.463702D-01
      2  0.000000D+00  0.463702D-01
      3  0.000000D+00  0.000000D+00  0.123368D+01
      4 -0.927517D-01  0.000000D+00  0.000000D+00  0.185503D+00
      5  0.000000D+00 -0.927517D-01  0.000000D+00  0.000000D+00  0.185503D+00
      6  0.000000D+00  0.000000D+00 -0.108560D+01  0.000000D+00  0.000000D+00
      7  0.463815D-01  0.000000D+00  0.000000D+00 -0.927517D-01  0.000000D+00
      8  0.000000D+00  0.463815D-01  0.000000D+00  0.000000D+00 -0.927517D-01
      9  0.000000D+00  0.000000D+00 -0.148075D+00  0.000000D+00  0.000000D+00
                6             7             8             9 
      6  0.217121D+01
      7  0.000000D+00  0.463702D-01
      8  0.000000D+00  0.000000D+00  0.463702D-01
      9 -0.108560D+01  0.000000D+00  0.000000D+00  0.123368D+01
 FormGI is forming the generalized inverse of G from B-inverse, IUseBI=4.
 Force constants in internal coordinates: 
                1             2             3             4 
      1  0.123368D+01
      2  0.148075D+00  0.123368D+01
      3  0.000000D+00  0.000000D+00  0.216521D+00
      4  0.000000D+00  0.000000D+00  0.000000D+00  0.216521D+00
 Leave Link  716 at Thu Mar  5 22:19:04 2020, MaxMem=   314572800 cpu:               0.1 elap:               0.1
 (Enter /opt/g16/l103.exe)

 GradGradGradGradGradGradGradGradGradGradGradGradGradGradGradGradGradGrad
 Berny optimization.
 Red2BG is reusing G-inverse.
 Internal  Forces:  Max     0.000024294 RMS     0.000017178
 Search for a local minimum.
 Step number   1 out of a maximum of    2
 All quantities printed in internal units (Hartrees-Bohrs-Radians)
 Second derivative matrix not updated -- analytic derivatives used.
 The second derivative matrix:
                          R1        R2        A1        A2
           R1           1.23368
           R2           0.14808   1.23368
           A1          -0.00000   0.00000   0.21652
           A2          -0.00000   0.00000   0.00000   0.21652
 ITU=  0
     Eigenvalues ---    0.21652   0.21652   1.08560   1.38175
 Angle between quadratic step and forces=   0.00 degrees.
 Linear search not attempted -- first point.
 Iteration  1 RMS(Cart)=  0.00001243 RMS(Int)=  0.00000000
 Iteration  2 RMS(Cart)=  0.00000000 RMS(Int)=  0.00000000
 ITry= 1 IFail=0 DXMaxC= 1.76D-05 DCOld= 1.00D+10 DXMaxT= 3.00D-01 DXLimC= 3.00D+00 Rises=F
 ClnCor:  largest displacement from symmetrization is 4.03D-14 for atom     2.
 Variable       Old X    -DE/DX   Delta X   Delta X   Delta X     New X
                                 (Linear)    (Quad)   (Total)
    R1        2.16062   0.00002   0.00000   0.00002   0.00002   2.16063
    R2        2.16062   0.00002   0.00000   0.00002   0.00002   2.16063
    A1        3.14159   0.00000   0.00000   0.00000   0.00000   3.14159
    A2        3.14159   0.00000   0.00000   0.00000   0.00000   3.14159
         Item               Value     Threshold  Converged?
 Maximum Force            0.000024     0.000450     YES
 RMS     Force            0.000017     0.000300     YES
 Maximum Displacement     0.000018     0.001800     YES
 RMS     Displacement     0.000012     0.001200     YES
 Predicted change in Energy=-4.271310D-10
 Optimization completed.
    -- Stationary point found.
                           ----------------------------
                           !   Optimized Parameters   !
                           ! (Angstroms and Degrees)  !
 --------------------------                            --------------------------
 ! Name  Definition              Value          Derivative Info.                !
 --------------------------------------------------------------------------------
 ! R1    R(1,2)                  1.1433         -DE/DX =    0.0                 !
 ! R2    R(2,3)                  1.1433         -DE/DX =    0.0                 !
 ! A1    L(1,2,3,-1,-1)        180.0            -DE/DX =    0.0                 !
 ! A2    L(1,2,3,-2,-2)        180.0            -DE/DX =    0.0                 !
 --------------------------------------------------------------------------------
 GradGradGradGradGradGradGradGradGradGradGradGradGradGradGradGradGradGrad

 Leave Link  103 at Thu Mar  5 22:19:04 2020, MaxMem=   314572800 cpu:               0.0 elap:               0.0
 (Enter /opt/g16/l9999.exe)
 Dipole is zero, so no output in dipole orientation.

 ----------------------------------------------------------------------

 Electric dipole moment (input orientation):
 (Debye = 10**-18 statcoulomb cm , SI units = C m)
                  (au)            (Debye)         (10**-30 SI)
   Tot        0.000000D+00      0.000000D+00      0.000000D+00
   x          0.000000D+00      0.000000D+00      0.000000D+00
   y          0.000000D+00      0.000000D+00      0.000000D+00
   z          0.000000D+00      0.000000D+00      0.000000D+00

 Dipole polarizability, Alpha (input orientation).
 (esu units = cm**3 , SI units = C**2 m**2 J**-1)
 Alpha(0;0):
               (au)            (10**-24 esu)      (10**-40 SI)
   iso        0.132399D+02      0.196195D+01      0.218296D+01
   aniso      0.146635D+02      0.217291D+01      0.241769D+01
   xx         0.835206D+01      0.123765D+01      0.137707D+01
   yx         0.000000D+00      0.000000D+00      0.000000D+00
   yy         0.835206D+01      0.123765D+01      0.137707D+01
   zx         0.000000D+00      0.000000D+00      0.000000D+00
   zy         0.000000D+00      0.000000D+00      0.000000D+00
   zz         0.230156D+02      0.341056D+01      0.379476D+01

 ----------------------------------------------------------------------
 1\1\GINC-Q70\Freq\RHF\6-31+G(d)\C1O2\GRACE\05-Mar-2020\0\\#P Geom=AllC
 heck Guess=TCheck SCRF=Check GenChk RHF/6-31+G(d) Freq\\get orbital\\0
 ,1\O,0.,0.,-0.1433490911\C,0.,0.,1.\O,0.,0.,2.1433490911\\Version=ES64
 L-G16RevA.03\State=1-SGG\HF=-187.6387868\RMSD=1.243e-10\RMSF=1.145e-05
 \ZeroPoint=0.0126984\Thermal=0.0152521\Dipole=0.,0.,0.\DipoleDeriv=-0.
 3935554,0.,0.,0.,-0.3935554,0.,0.,0.,-1.5706959,0.7871109,0.,0.,0.,0.7
 871109,0.,0.,0.,3.1413917,-0.3935554,0.,0.,0.,-0.3935554,0.,0.,0.,-1.5
 706959\Polar=8.3520598,0.,8.3520598,0.,0.,23.015587\PolarDeriv=0.,0.,0
 .,-3.3933658,0.,0.,0.,0.,0.,0.,-3.3933658,0.,-2.0910065,0.,-2.0910065,
 0.,0.,-10.3392078,0.,0.,0.,0.,0.,0.,0.,0.,0.,0.,0.,0.,0.0000001,0.,0.0
 000001,0.,0.,-0.000001,0.,0.,0.,3.3933658,0.,0.,0.,0.,0.,0.,3.3933658,
 0.,2.0910065,0.,2.0910065,0.,0.,10.3392078\HyperPolar=0.,0.,0.,0.,0.,0
 .,0.,0.,0.,0.\Quadrupole=1.3907335,1.3907335,-2.781467,0.,0.,0.\PG=D*H
  [O(C1),C*(O1.O1)]\NImag=0\\0.04637021,0.,0.04637021,0.,0.,1.23367884,
 -0.09275166,0.,0.,0.18550333,0.,-0.09275166,0.,0.,0.18550333,0.,0.,-1.
 08560374,0.,0.,2.17120747,0.04638146,0.,0.,-0.09275166,0.,0.,0.0463702
 1,0.,0.04638146,0.,0.,-0.09275166,0.,0.,0.04637021,0.,0.,-0.14807510,0
 .,0.,-1.08560374,0.,0.,1.23367884\\0.,0.,0.00002429,0.,0.,0.,0.,0.,-0.
 00002429\\\@


 HE THAT FOLLOWS NATURE IS NEVER LOST.

                             -- BACON
 Job cpu time:       0 days  0 hours  0 minutes  6.0 seconds.
 Elapsed time:       0 days  0 hours  0 minutes  5.9 seconds.
 File lengths (MBytes):  RWF=      6 Int=      0 D2E=      0 Chk=      2 Scr=      1
 Normal termination of Gaussian 16 at Thu Mar  5 22:19:04 2020.
