C1, Pilling 2011.                                                       
Freq      RHF                                                         6-31G(d)            
Number of atoms                            I               10
Info1-9                                    I   N=           9
          43          42        1002           0           0         100
           6           1           2
Full Title                                 C   N=           2
C1, Pilling 2011.       
Route                                      C   N=           4
# HF/6-31G(d) OPT Freq GFPrint Pop=Full         
Charge                                     I                0
Multiplicity                               I                1
Number of electrons                        I               40
Number of alpha electrons                  I               20
Number of beta electrons                   I               20
Number of basis functions                  I               85
Number of independent functions            I               85
Number of point charges in /Mol/           I                0
Number of translation vectors              I                0
Atomic numbers                             I   N=          10
           6           8           8           1           6           1
           1           7           1           1
Nuclear charges                            R   N=          10
  6.00000000E+00  8.00000000E+00  8.00000000E+00  1.00000000E+00  6.00000000E+00
  1.00000000E+00  1.00000000E+00  7.00000000E+00  1.00000000E+00  1.00000000E+00
Current cartesian coordinates              R   N=          30
  1.02325406E+00  1.92816887E-01  2.70450003E-02  1.14871947E+00  2.43136330E+00
  9.17615397E-02  3.04756553E+00 -1.28136338E+00 -1.52989872E-01  4.50780369E+00
 -2.30492573E-01 -2.06830259E-01 -1.37930154E+00 -1.32368323E+00  2.55528378E-01
 -1.25657160E+00 -2.93468601E+00 -9.99890886E-01 -1.38935384E+00 -2.07063483E+00
  2.18099454E+00 -3.53219288E+00  2.18556384E-01 -3.94256629E-01 -5.14576795E+00
 -6.15041640E-01  1.28197057E-01 -3.42475523E+00  1.90615910E+00  4.51712340E-01
Number of symbols in /Mol/                 I                0
Force Field                                I                0
Atom Types                                 C   N=          10
                                                            
                                                            
Int Atom Types                             I   N=          10
           0           0           0           0           0           0
           0           0           0           0
MM charges                                 R   N=          10
  0.00000000E+00  0.00000000E+00  0.00000000E+00  0.00000000E+00  0.00000000E+00
  0.00000000E+00  0.00000000E+00  0.00000000E+00  0.00000000E+00  0.00000000E+00
Integer atomic weights                     I   N=          10
          12          16          16           1          12           1
           1          14           1           1
Real atomic weights                        R   N=          10
  1.20000000E+01  1.59949146E+01  1.59949146E+01  1.00782504E+00  1.20000000E+01
  1.00782504E+00  1.00782504E+00  1.40030740E+01  1.00782504E+00  1.00782504E+00
Atom fragment info                         I   N=          10
           0           0           0           0           0           0
           0           0           0           0
Atom residue num                           I   N=          10
           0           0           0           0           0           0
           0           0           0           0
Nuclear spins                              I   N=          10
           0           0           0           1           0           1
           1           2           1           1
Nuclear ZEff                               R   N=          10
 -3.60000000E+00 -5.60000000E+00 -5.60000000E+00 -1.00000000E+00 -3.60000000E+00
 -1.00000000E+00 -1.00000000E+00 -4.55000000E+00 -1.00000000E+00 -1.00000000E+00
Nuclear ZNuc                               R   N=          10
  6.00000000E+00  8.00000000E+00  8.00000000E+00  1.00000000E+00  6.00000000E+00
  1.00000000E+00  1.00000000E+00  7.00000000E+00  1.00000000E+00  1.00000000E+00
Nuclear QMom                               R   N=          10
  0.00000000E+00  0.00000000E+00  0.00000000E+00  0.00000000E+00  0.00000000E+00
  0.00000000E+00  0.00000000E+00  2.04400000E+00  0.00000000E+00  0.00000000E+00
Nuclear GFac                               R   N=          10
  0.00000000E+00  0.00000000E+00  0.00000000E+00  2.79284600E+00  0.00000000E+00
  2.79284600E+00  2.79284600E+00  4.03761000E-01  2.79284600E+00  2.79284600E+00
MicOpt                                     I   N=          10
          -1          -1          -1          -1          -1          -1
          -1          -1          -1          -1
Number of residues                         I                0
Number of secondary structures             I                0
Redundant internal dimensions              I   N=           4
          36           9          13          14
Redundant internal coordinate indices      I   N=         144
           1           2           0           0           1           3
           0           0           1           5           0           0
           3           4           0           0           5           6
           0           0           5           7           0           0
           5           8           0           0           8           9
           0           0           8          10           0           0
           2           1           3           0           2           1
           5           0           3           1           5           0
           1           3           4           0           1           5
           6           0           1           5           7           0
           1           5           8           0           6           5
           7           0           6           5           8           0
           7           5           8           0           5           8
           9           0           5           8          10           0
           9           8          10           0           2           1
           3           4           5           1           3           4
           2           1           5           6           2           1
           5           7           2           1           5           8
           3           1           5           6           3           1
           5           7           3           1           5           8
           1           5           8           9           1           5
           8          10           6           5           8           9
           6           5           8          10           7           5
           8           9           7           5           8          10
Redundant internal coordinates             R   N=          36
  2.24299350E+00  2.51066863E+00  2.85030712E+00  1.79986770E+00  2.04608654E+00
  2.06529845E+00  2.72684152E+00  1.88983281E+00  1.89082238E+00  2.14476671E+00
  2.18441508E+00  1.95300759E+00  1.88963351E+00  1.89564743E+00  1.84549903E+00
  1.92354422E+00  1.86247330E+00  1.92459126E+00  2.00740277E+00  1.93772974E+00
  1.93190978E+00  1.89495869E+00  4.18713957E-03 -3.09169272E+00  2.49062426E+00
 -1.79913187E+00  3.80508219E-01 -6.97922361E-01  1.29550681E+00 -2.80803840E+00
 -2.91012733E+00 -8.04250372E-01  1.28035492E+00 -2.89695343E+00 -8.26352918E-01
  1.27952404E+00
ZRed-IntVec                                I   N=          36
           0           0           0           0           0           0
           0           0           0           0           0           0
           0           0           0           0           0           0
           0           0           0           0           0           0
           0           0           0           0           0           0
           0           0           0           0           0           0
ZRed-FPVec                                 R   N=          36
  0.00000000E+00  0.00000000E+00  0.00000000E+00  0.00000000E+00  0.00000000E+00
  0.00000000E+00  0.00000000E+00  0.00000000E+00  0.00000000E+00  0.00000000E+00
  0.00000000E+00  0.00000000E+00  0.00000000E+00  0.00000000E+00  0.00000000E+00
  0.00000000E+00  0.00000000E+00  0.00000000E+00  0.00000000E+00  0.00000000E+00
  0.00000000E+00  0.00000000E+00  0.00000000E+00  0.00000000E+00  0.00000000E+00
  0.00000000E+00  0.00000000E+00  0.00000000E+00  0.00000000E+00  0.00000000E+00
  0.00000000E+00  0.00000000E+00  0.00000000E+00  0.00000000E+00  0.00000000E+00
  0.00000000E+00
ZRed-Constraint1                           R   N=          36
  2.24299350E+00  2.51066863E+00  2.85030712E+00  1.79986770E+00  2.04608654E+00
  2.06529845E+00  2.72684152E+00  1.88983281E+00  1.89082238E+00  2.14476671E+00
  2.18441508E+00  1.95300759E+00  1.88963351E+00  1.89564743E+00  1.84549903E+00
  1.92354422E+00  1.86247330E+00  1.92459126E+00  2.00740277E+00  1.93772974E+00
  1.93190978E+00  1.89495869E+00  4.18713957E-03 -3.09169272E+00  2.49062426E+00
 -1.79913187E+00  3.80508219E-01 -6.97922361E-01  1.29550681E+00 -2.80803840E+00
 -2.91012733E+00 -8.04250372E-01  1.28035492E+00 -2.89695343E+00 -8.26352918E-01
  1.27952404E+00
ZRed-Constraint2                           R   N=          36
  2.23424347E+00  2.52746974E+00  2.86750578E+00  1.79888406E+00  2.05205097E+00
  2.05205097E+00  2.72160293E+00  1.88447352E+00  1.88447352E+00  2.13790001E+00
  2.22962031E+00  1.91566499E+00  1.88536570E+00  1.85682146E+00  1.85682146E+00
  1.97657157E+00  1.84228277E+00  1.96087721E+00  1.96087721E+00  1.96827327E+00
  1.96827327E+00  1.90145725E+00  0.00000000E+00  3.14159265E+00  2.16246058E+00
 -2.16246058E+00  0.00000000E+00 -9.79132069E-01  9.79132069E-01  3.14159265E+00
  2.36181794E+00 -1.75842614E+00  2.57399093E-01  2.42034032E+00 -1.81694852E+00
  3.45992707E-01
SymInf integers                            I   N=          26
           1           1           1           1           1           0
           0           0           0           0           0           0
           0           0           0           0           0           0
           0           0           0           0           0           0
           0           0
RotTr to input orientation                 R   N=          12
  9.90371552E-01 -4.50039397E-02  1.30915375E-01 -1.38339235E-01 -2.86608747E-01
  9.48007216E-01 -5.14256810E-03 -9.56990111E-01 -2.90074960E-01 -1.08632423E+00
 -5.14002381E-02 -4.26045809E-01
Number of contracted shells                I               30
Number of primitive shells                 I               75
Pure/Cartesian d shells                    I                1
Pure/Cartesian f shells                    I                0
Highest angular momentum                   I                2
Largest degree of contraction              I                6
Shell types                                I   N=          30
           0          -1          -1           2           0          -1
          -1           2           0          -1          -1           2
           0           0           0          -1          -1           2
           0           0           0           0           0          -1
          -1           2           0           0           0           0
Number of primitives per shell             I   N=          30
           6           3           1           1           6           3
           1           1           6           3           1           1
           3           1           6           3           1           1
           3           1           3           1           6           3
           1           1           3           1           3           1
Shell to atom map                          I   N=          30
           1           1           1           1           2           2
           2           2           3           3           3           3
           4           4           5           5           5           5
           6           6           7           7           8           8
           8           8           9           9          10          10
Primitive exponents                        R   N=          75
  3.04752488E+03  4.57369518E+02  1.03948685E+02  2.92101553E+01  9.28666296E+00
  3.16392696E+00  7.86827235E+00  1.88128854E+00  5.44249258E-01  1.68714478E-01
  8.00000000E-01  5.48467166E+03  8.25234946E+02  1.88046958E+02  5.29645000E+01
  1.68975704E+01  5.79963534E+00  1.55396162E+01  3.59993359E+00  1.01376175E+00
  2.70005823E-01  8.00000000E-01  5.48467166E+03  8.25234946E+02  1.88046958E+02
  5.29645000E+01  1.68975704E+01  5.79963534E+00  1.55396162E+01  3.59993359E+00
  1.01376175E+00  2.70005823E-01  8.00000000E-01  1.87311370E+01  2.82539436E+00
  6.40121692E-01  1.61277759E-01  3.04752488E+03  4.57369518E+02  1.03948685E+02
  2.92101553E+01  9.28666296E+00  3.16392696E+00  7.86827235E+00  1.88128854E+00
  5.44249258E-01  1.68714478E-01  8.00000000E-01  1.87311370E+01  2.82539436E+00
  6.40121692E-01  1.61277759E-01  1.87311370E+01  2.82539436E+00  6.40121692E-01
  1.61277759E-01  4.17351146E+03  6.27457911E+02  1.42902093E+02  4.02343293E+01
  1.28202129E+01  4.39043701E+00  1.16263619E+01  2.71627981E+00  7.72218397E-01
  2.12031498E-01  8.00000000E-01  1.87311370E+01  2.82539436E+00  6.40121692E-01
  1.61277759E-01  1.87311370E+01  2.82539436E+00  6.40121692E-01  1.61277759E-01
Contraction coefficients                   R   N=          75
  1.83473713E-03  1.40373228E-02  6.88426223E-02  2.32184443E-01  4.67941348E-01
  3.62311985E-01 -1.19332420E-01 -1.60854152E-01  1.14345644E+00  1.00000000E+00
  1.00000000E+00  1.83107443E-03  1.39501722E-02  6.84450781E-02  2.32714336E-01
  4.70192898E-01  3.58520853E-01 -1.10777550E-01 -1.48026263E-01  1.13076702E+00
  1.00000000E+00  1.00000000E+00  1.83107443E-03  1.39501722E-02  6.84450781E-02
  2.32714336E-01  4.70192898E-01  3.58520853E-01 -1.10777550E-01 -1.48026263E-01
  1.13076702E+00  1.00000000E+00  1.00000000E+00  3.34946043E-02  2.34726953E-01
  8.13757326E-01  1.00000000E+00  1.83473713E-03  1.40373228E-02  6.88426223E-02
  2.32184443E-01  4.67941348E-01  3.62311985E-01 -1.19332420E-01 -1.60854152E-01
  1.14345644E+00  1.00000000E+00  1.00000000E+00  3.34946043E-02  2.34726953E-01
  8.13757326E-01  1.00000000E+00  3.34946043E-02  2.34726953E-01  8.13757326E-01
  1.00000000E+00  1.83477216E-03  1.39946270E-02  6.85865518E-02  2.32240873E-01
  4.69069948E-01  3.60455199E-01 -1.14961182E-01 -1.69117479E-01  1.14585195E+00
  1.00000000E+00  1.00000000E+00  3.34946043E-02  2.34726953E-01  8.13757326E-01
  1.00000000E+00  3.34946043E-02  2.34726953E-01  8.13757326E-01  1.00000000E+00
P(S=P) Contraction coefficients            R   N=          75
  0.00000000E+00  0.00000000E+00  0.00000000E+00  0.00000000E+00  0.00000000E+00
  0.00000000E+00  6.89990666E-02  3.16423961E-01  7.44308291E-01  1.00000000E+00
  0.00000000E+00  0.00000000E+00  0.00000000E+00  0.00000000E+00  0.00000000E+00
  0.00000000E+00  0.00000000E+00  7.08742682E-02  3.39752839E-01  7.27158577E-01
  1.00000000E+00  0.00000000E+00  0.00000000E+00  0.00000000E+00  0.00000000E+00
  0.00000000E+00  0.00000000E+00  0.00000000E+00  7.08742682E-02  3.39752839E-01
  7.27158577E-01  1.00000000E+00  0.00000000E+00  0.00000000E+00  0.00000000E+00
  0.00000000E+00  0.00000000E+00  0.00000000E+00  0.00000000E+00  0.00000000E+00
  0.00000000E+00  0.00000000E+00  0.00000000E+00  6.89990666E-02  3.16423961E-01
  7.44308291E-01  1.00000000E+00  0.00000000E+00  0.00000000E+00  0.00000000E+00
  0.00000000E+00  0.00000000E+00  0.00000000E+00  0.00000000E+00  0.00000000E+00
  0.00000000E+00  0.00000000E+00  0.00000000E+00  0.00000000E+00  0.00000000E+00
  0.00000000E+00  0.00000000E+00  6.75797439E-02  3.23907296E-01  7.40895140E-01
  1.00000000E+00  0.00000000E+00  0.00000000E+00  0.00000000E+00  0.00000000E+00
  0.00000000E+00  0.00000000E+00  0.00000000E+00  0.00000000E+00  0.00000000E+00
Coordinates of each shell                  R   N=          90
  1.02325406E+00  1.92816887E-01  2.70450003E-02  1.02325406E+00  1.92816887E-01
  2.70450003E-02  1.02325406E+00  1.92816887E-01  2.70450003E-02  1.02325406E+00
  1.92816887E-01  2.70450003E-02  1.14871947E+00  2.43136330E+00  9.17615397E-02
  1.14871947E+00  2.43136330E+00  9.17615397E-02  1.14871947E+00  2.43136330E+00
  9.17615397E-02  1.14871947E+00  2.43136330E+00  9.17615397E-02  3.04756553E+00
 -1.28136338E+00 -1.52989872E-01  3.04756553E+00 -1.28136338E+00 -1.52989872E-01
  3.04756553E+00 -1.28136338E+00 -1.52989872E-01  3.04756553E+00 -1.28136338E+00
 -1.52989872E-01  4.50780369E+00 -2.30492573E-01 -2.06830259E-01  4.50780369E+00
 -2.30492573E-01 -2.06830259E-01 -1.37930154E+00 -1.32368323E+00  2.55528378E-01
 -1.37930154E+00 -1.32368323E+00  2.55528378E-01 -1.37930154E+00 -1.32368323E+00
  2.55528378E-01 -1.37930154E+00 -1.32368323E+00  2.55528378E-01 -1.25657160E+00
 -2.93468601E+00 -9.99890886E-01 -1.25657160E+00 -2.93468601E+00 -9.99890886E-01
 -1.38935384E+00 -2.07063483E+00  2.18099454E+00 -1.38935384E+00 -2.07063483E+00
  2.18099454E+00 -3.53219288E+00  2.18556384E-01 -3.94256629E-01 -3.53219288E+00
  2.18556384E-01 -3.94256629E-01 -3.53219288E+00  2.18556384E-01 -3.94256629E-01
 -3.53219288E+00  2.18556384E-01 -3.94256629E-01 -5.14576795E+00 -6.15041640E-01
  1.28197057E-01 -5.14576795E+00 -6.15041640E-01  1.28197057E-01 -3.42475523E+00
  1.90615910E+00  4.51712340E-01 -3.42475523E+00  1.90615910E+00  4.51712340E-01
Num ILSW                                   I              100
ILSW                                       I   N=         100
           0           1           0           0           2           0
           0           0           0           0           0          -1
           5           0           0           0           2           0
           0           0           1           0           1           0
           1           0           0           0           0           0
           0           0      100000           0          -1           0
           0           0           0           0           0           0
           0           0           0           1           0           0
           0 -2000000000           1           0           0           0
           0           0           4          52           0           0
           0           0           0           0           0           0
           0           0           0           0           0           1
           0           0           0           0           0           0
           0           0           0           0           0           0
           0           0           0           0           0           0
           0           0           0           0           0           0
           0           0           0           0
Num RLSW                                   I               52
RLSW                                       R   N=          52
  1.00000000E+00  1.00000000E+00  1.00000000E+00  1.00000000E+00  1.00000000E+00
  0.00000000E+00  0.00000000E+00  1.00000000E+00  0.00000000E+00  0.00000000E+00
  0.00000000E+00  0.00000000E+00  1.00000000E+00  0.00000000E+00  0.00000000E+00
  0.00000000E+00  0.00000000E+00  1.00000000E+00  0.00000000E+00  0.00000000E+00
  0.00000000E+00  0.00000000E+00  1.00000000E+00  0.00000000E+00  0.00000000E+00
  0.00000000E+00  0.00000000E+00  1.00000000E+00  0.00000000E+00  0.00000000E+00
  0.00000000E+00  0.00000000E+00  1.00000000E+00  0.00000000E+00  0.00000000E+00
  0.00000000E+00  0.00000000E+00  0.00000000E+00  1.00000000E+00  1.00000000E+00
  0.00000000E+00  1.00000000E+00  0.00000000E+00  0.00000000E+00  0.00000000E+00
  0.00000000E+00  0.00000000E+00  0.00000000E+00  0.00000000E+00  0.00000000E+00
  0.00000000E+00  0.00000000E+00
MxBond                                     I                4
NBond                                      I   N=          10
           3           1           2           1           4           1
           1           3           1           1
IBond                                      I   N=          40
           2           3           5           0           1           0
           0           0           1           4           0           0
           3           0           0           0           1           6
           7           8           5           0           0           0
           5           0           0           0           5           9
          10           0           8           0           0           0
           8           0           0           0
RBond                                      R   N=          40
  2.00000000E+00  1.50000000E+00  1.00000000E+00  0.00000000E+00  2.00000000E+00
  0.00000000E+00  0.00000000E+00  0.00000000E+00  1.50000000E+00  1.00000000E+00
  0.00000000E+00  0.00000000E+00  1.00000000E+00  0.00000000E+00  0.00000000E+00
  0.00000000E+00  1.00000000E+00  1.00000000E+00  1.00000000E+00  1.00000000E+00
  1.00000000E+00  0.00000000E+00  0.00000000E+00  0.00000000E+00  1.00000000E+00
  0.00000000E+00  0.00000000E+00  0.00000000E+00  1.00000000E+00  1.00000000E+00
  1.00000000E+00  0.00000000E+00  1.00000000E+00  0.00000000E+00  0.00000000E+00
  0.00000000E+00  1.00000000E+00  0.00000000E+00  0.00000000E+00  0.00000000E+00
Virial Ratio                               R      2.001841593371165E+00
SCF Energy                                 R     -2.828278054236139E+02
Total Energy                               R     -2.828278054236139E+02
RMS Force                                  R      1.325949023110522E-05
RMS Density                                R      7.418898495340149E-10
NImag                                      I                0
Job Status                                 I                1
Nuclear derivative order                   I                2
External E-field                           R   N=          35
  0.00000000E+00  0.00000000E+00  0.00000000E+00  0.00000000E+00  0.00000000E+00
  0.00000000E+00  0.00000000E+00  0.00000000E+00  0.00000000E+00  0.00000000E+00
  0.00000000E+00  0.00000000E+00  0.00000000E+00  0.00000000E+00  0.00000000E+00
  0.00000000E+00  0.00000000E+00  0.00000000E+00  0.00000000E+00  0.00000000E+00
  0.00000000E+00  0.00000000E+00  0.00000000E+00  0.00000000E+00  0.00000000E+00
  0.00000000E+00  0.00000000E+00  0.00000000E+00  0.00000000E+00  0.00000000E+00
  0.00000000E+00  0.00000000E+00  0.00000000E+00  0.00000000E+00  0.00000000E+00
IOpCl                                      I                0
IROHF                                      I                0
Alpha Orbital Energies                     R   N=          85
 -2.06204310E+01 -2.05578946E+01 -1.55463868E+01 -1.13869695E+01 -1.12715871E+01
 -1.48237996E+00 -1.37398825E+00 -1.19501287E+00 -9.80804015E-01 -8.20329482E-01
 -7.21404387E-01 -7.06305289E-01 -6.70798956E-01 -6.33534892E-01 -6.03299580E-01
 -5.74682928E-01 -5.61305449E-01 -4.85059395E-01 -4.53775682E-01 -3.97405361E-01
  1.90551527E-01  2.28459756E-01  2.34853352E-01  2.81454611E-01  3.18392926E-01
  3.29270259E-01  4.07504972E-01  4.48036802E-01  4.92853213E-01  5.43459011E-01
  7.52762454E-01  7.70886321E-01  7.90167606E-01  8.38714628E-01  8.87205002E-01
  9.37965519E-01  9.63682248E-01  9.96740403E-01  1.05457776E+00  1.06872316E+00
  1.09772929E+00  1.12488774E+00  1.18266149E+00  1.19144564E+00  1.20973095E+00
  1.22686749E+00  1.24196940E+00  1.25487911E+00  1.28467970E+00  1.35295625E+00
  1.40199474E+00  1.51988948E+00  1.62146501E+00  1.66748116E+00  1.71378083E+00
  1.80890669E+00  1.82373258E+00  1.98113773E+00  2.02785449E+00  2.06273400E+00
  2.08162371E+00  2.10956387E+00  2.17294825E+00  2.23908226E+00  2.27023850E+00
  2.35787246E+00  2.37703005E+00  2.44091656E+00  2.51714044E+00  2.67097588E+00
  2.70038958E+00  2.74763855E+00  2.81164080E+00  2.89530952E+00  2.97843393E+00
  3.02927754E+00  3.10901097E+00  3.27309677E+00  3.38067971E+00  3.49141891E+00
  4.18623711E+00  4.28135698E+00  4.53188993E+00  4.64662933E+00  4.90921209E+00
Alpha MO coefficients                      R   N=        7225
  3.29146253E-06  4.28716942E-04  2.34886619E-04 -1.82223065E-04 -2.10653677E-05
 -2.93634506E-04  1.65272551E-04  5.78131775E-04  3.94365322E-05 -1.18402315E-04
 -5.02886412E-05 -5.10137895E-05  9.25809270E-05  5.07083843E-06 -8.99214311E-06
 -2.98882585E-04  3.20777727E-05 -3.70576284E-05  3.63569447E-05  6.41185164E-06
 -3.90909549E-04 -5.97307277E-05  7.63696487E-05 -5.70707959E-06  2.69221097E-05
 -5.56478457E-06 -5.99529900E-06  7.28282442E-05  3.16649492E-07 -3.15915455E-06
  9.94590858E-01  2.12445880E-02 -1.82634256E-05  1.27758623E-03  5.59838281E-05
  4.38671531E-03 -2.18379301E-04 -5.74943537E-04 -1.48182452E-05 -4.20373684E-03
 -4.14084569E-03 -4.04551023E-03 -3.36636568E-05  1.06039459E-05 -2.68531891E-06
  4.21046629E-04 -2.58729455E-04 -6.31342107E-06  6.72114631E-06  5.62829519E-06
  2.85179140E-06  9.82037475E-06  6.12343606E-04 -1.22152513E-04  1.80667066E-04
 -1.35283407E-04 -6.80970650E-05  4.76051087E-06 -2.74328376E-05 -1.19070253E-05
  1.69244721E-05 -1.22063616E-05  2.42792158E-05 -1.28904043E-04  1.53452628E-05
  8.73135316E-06  8.78627308E-06  4.07944330E-05  9.38807872E-07 -4.59367052E-06
  1.13450374E-06 -3.36544180E-04 -1.43974417E-04  9.72054402E-05 -3.24475482E-05
 -1.45626179E-06  1.87941278E-05  2.31366583E-05  4.89062829E-06 -2.77361330E-06
 -3.14724738E-06  1.20342578E-05 -1.10755901E-05  1.65366657E-05 -4.58633640E-05
 -7.65815746E-06  3.96984068E-04 -1.91010414E-05 -1.90794231E-04 -6.81157703E-06
 -5.80436183E-04 -2.73882696E-04 -5.48975872E-04  2.30603687E-05 -4.99787180E-05
 -9.42022898E-04 -1.13873360E-05 -2.88974117E-05  1.43552367E-06 -3.45528710E-05
  9.94657897E-01  2.10949545E-02 -6.51838775E-05 -1.68215789E-03 -3.99345957E-05
  4.80264694E-03  2.08978429E-05 -1.13968561E-04 -1.52730387E-05 -3.99035978E-03
 -3.51718272E-03 -4.20397840E-03  2.87120036E-05 -1.81641820E-05  2.38207278E-05
  2.96539401E-04 -7.73127324E-05  8.60012600E-06 -4.55664646E-05 -1.71726603E-06
  3.19022656E-04 -1.03546001E-04  1.14021848E-04  6.62888711E-06  7.29452633E-05
 -1.16996748E-04 -9.45963222E-05  4.35459855E-06 -1.23117403E-05 -2.32377243E-06
 -3.44778251E-05  3.67139994E-06  1.24513929E-07 -8.96389303E-06  2.40696052E-06
 -1.93994577E-05 -3.43407798E-06 -5.06370315E-05 -1.91632676E-04  2.12991876E-06
 -3.66471799E-05  6.64014428E-05 -4.99370923E-05 -1.27407808E-05 -3.47373939E-05
 -3.37451251E-06 -1.48800198E-06  7.88913642E-06 -4.86906526E-05  1.20064154E-05
 -1.20034217E-05  3.67993408E-06  1.98612169E-05  1.40798881E-05  3.30031280E-07
 -7.54943213E-06 -7.50718860E-05 -1.15713904E-04  7.67302169E-05  7.10667451E-06
 -1.39255692E-06 -8.30666921E-06  1.70324966E-05  1.07198262E-05 -1.02978320E-05
  7.59993349E-06 -9.71730235E-06 -2.98133612E-05  2.25523576E-05 -1.22367611E-04
 -5.58781410E-06 -1.16814726E-05  2.97110477E-05 -6.22253703E-06 -1.63333030E-07
 -6.55519268E-04  1.77655227E-04 -1.99496219E-04 -1.02224143E-04 -3.94520187E-05
 -3.37577947E-05 -1.64602668E-05 -9.73169178E-06  1.56101222E-05 -5.03665672E-06
 -1.46290563E-05 -6.92793980E-05  3.91901349E-06  9.00206916E-06  1.04908947E-06
  4.76581569E-04 -2.74142229E-08 -1.87144238E-04  1.20254574E-05 -6.71139384E-05
 -8.07662745E-06 -4.73943223E-05  3.29728633E-06  5.36372360E-06 -4.69746230E-06
 -9.06290864E-06 -3.03594277E-05  7.60439217E-06  5.26875153E-06 -6.33880499E-06
  1.27206968E-04 -7.97684909E-05  1.41892225E-05  3.40451727E-05 -1.52784069E-05
 -2.51931453E-05 -2.93273449E-05 -1.62612228E-05 -3.46892645E-06  3.74371993E-06
  8.94105269E-06  3.45642243E-06 -2.11011851E-05  1.76717742E-04 -1.77617675E-04
  1.16318553E-04 -7.33936662E-05  1.81520897E-03 -4.87414864E-04  5.71463232E-04
  2.27167609E-04 -1.74162313E-04 -1.34491910E-04 -1.03388809E-04  7.50040043E-05
 -4.01334037E-05  5.81919358E-06 -4.65425077E-05  5.50619580E-06 -1.55514944E-04
 -2.17471772E-04  9.94988824E-01  2.50311276E-02  8.61331089E-05 -3.00105672E-04
  1.42114955E-03 -2.57167920E-03 -3.28937716E-04  3.96646037E-04 -1.10369584E-03
 -3.46648325E-03 -3.43731185E-03 -3.24111644E-03  3.60437291E-05 -4.81634450E-05
  6.65375898E-06  2.92722144E-04  5.74675450E-04  2.88667315E-04  5.45416273E-04
  9.95819660E-01  2.64827664E-02  1.06649107E-03 -9.04038570E-05 -4.54102342E-05
 -5.74191427E-03  3.90417893E-03  3.41465666E-03 -2.87682233E-04 -1.26661644E-03
 -5.86645578E-04 -2.46042970E-03 -2.06547716E-04 -1.11625519E-04  7.39860723E-05
 -3.48527492E-04  7.36767991E-04  3.72557002E-05 -3.93353134E-04 -2.17774285E-05
 -3.84514790E-03 -7.82580930E-04  1.92440870E-03  1.66973670E-04  1.97982921E-04
  2.07038763E-04  3.97745774E-04  1.97161124E-04  2.62690728E-05 -3.26840811E-05
 -9.99885002E-05  7.11510954E-04 -5.03513728E-05  1.64583243E-04  8.51327693E-06
 -2.14435513E-03  7.83541874E-04 -1.88495026E-03 -9.57315762E-05 -3.13620548E-04
 -1.41861615E-04  5.53870819E-04  4.74547173E-04  8.15456102E-05 -4.83606024E-05
  3.68361835E-04 -2.05275807E-05  2.63297774E-03  5.18396556E-05 -2.84422731E-05
 -6.84894628E-05  3.92284116E-05  4.40015292E-03  2.34715533E-03  1.05210263E-03
 -2.87611556E-04 -4.39892947E-04 -2.83820167E-04 -1.41594303E-04 -1.07798742E-04
  6.67836274E-06  4.25230157E-05 -1.72775566E-04  1.58982365E-04 -1.67778325E-04
  3.31003981E-04 -2.36976841E-05 -1.58267631E-04 -8.93248844E-05 -2.61220957E-06
  1.48716314E-05  2.95832203E-04  4.19108601E-04 -9.42253380E-05  3.07679060E-05
  3.05122894E-05 -8.48267296E-06 -1.19718386E-04 -3.18400601E-06  3.45648252E-05
 -3.53117468E-05  2.29932727E-05  3.03130424E-04 -6.13379417E-05  1.03027202E-04
 -3.00444270E-03 -9.16139011E-05 -9.60952378E-05 -5.00742412E-05  1.38876496E-05
  4.40488540E-03 -3.15909036E-03 -1.12524215E-03  1.11647880E-04 -5.06005025E-04