 Entering Gaussian System, Link 0=g16
 Input=glycine_OPT.com
 Output=glycine_OPT.log
 Initial command:
 /opt/g16/l1.exe "/scratch/Grace/g03/Gau-13400.inp" -scrdir="/scratch/Grace/g03/"
 Entering Link 1 = /opt/g16/l1.exe PID=     13401.
  
 Copyright (c) 1988,1990,1992,1993,1995,1998,2003,2009,2016,
            Gaussian, Inc.  All Rights Reserved.
  
 This is part of the Gaussian(R) 16 program.  It is based on
 the Gaussian(R) 09 system (copyright 2009, Gaussian, Inc.),
 the Gaussian(R) 03 system (copyright 2003, Gaussian, Inc.),
 the Gaussian(R) 98 system (copyright 1998, Gaussian, Inc.),
 the Gaussian(R) 94 system (copyright 1995, Gaussian, Inc.),
 the Gaussian 92(TM) system (copyright 1992, Gaussian, Inc.),
 the Gaussian 90(TM) system (copyright 1990, Gaussian, Inc.),
 the Gaussian 88(TM) system (copyright 1988, Gaussian, Inc.),
 the Gaussian 86(TM) system (copyright 1986, Carnegie Mellon
 University), and the Gaussian 82(TM) system (copyright 1983,
 Carnegie Mellon University). Gaussian is a federally registered
 trademark of Gaussian, Inc.
  
 This software contains proprietary and confidential information,
 including trade secrets, belonging to Gaussian, Inc.
  
 This software is provided under written license and may be
 used, copied, transmitted, or stored only in accord with that
 written license.
  
 The following legend is applicable only to US Government
 contracts under FAR:
  
                    RESTRICTED RIGHTS LEGEND
  
 Use, reproduction and disclosure by the US Government is
 subject to restrictions as set forth in subparagraphs (a)
 and (c) of the Commercial Computer Software - Restricted
 Rights clause in FAR 52.227-19.
  
 Gaussian, Inc.
 340 Quinnipiac St., Bldg. 40, Wallingford CT 06492
  
  
 ---------------------------------------------------------------
 Warning -- This program may not be used in any manner that
 competes with the business of Gaussian, Inc. or will provide
 assistance to any competitor of Gaussian, Inc.  The licensee
 of this program is prohibited from giving any competitor of
 Gaussian, Inc. access to this program.  By using this program,
 the user acknowledges that Gaussian, Inc. is engaged in the
 business of creating and licensing software in the field of
 computational chemistry and represents and warrants to the
 licensee that it is not a competitor of Gaussian, Inc. and that
 it will not use this program in any manner prohibited above.
 ---------------------------------------------------------------
  

 Cite this work as:
 Gaussian 16, Revision A.03,
 M. J. Frisch, G. W. Trucks, H. B. Schlegel, G. E. Scuseria, 
 M. A. Robb, J. R. Cheeseman, G. Scalmani, V. Barone, 
 G. A. Petersson, H. Nakatsuji, X. Li, M. Caricato, A. V. Marenich, 
 J. Bloino, B. G. Janesko, R. Gomperts, B. Mennucci, H. P. Hratchian, 
 J. V. Ortiz, A. F. Izmaylov, J. L. Sonnenberg, D. Williams-Young, 
 F. Ding, F. Lipparini, F. Egidi, J. Goings, B. Peng, A. Petrone, 
 T. Henderson, D. Ranasinghe, V. G. Zakrzewski, J. Gao, N. Rega, 
 G. Zheng, W. Liang, M. Hada, M. Ehara, K. Toyota, R. Fukuda, 
 J. Hasegawa, M. Ishida, T. Nakajima, Y. Honda, O. Kitao, H. Nakai, 
 T. Vreven, K. Throssell, J. A. Montgomery, Jr., J. E. Peralta, 
 F. Ogliaro, M. J. Bearpark, J. J. Heyd, E. N. Brothers, K. N. Kudin, 
 V. N. Staroverov, T. A. Keith, R. Kobayashi, J. Normand, 
 K. Raghavachari, A. P. Rendell, J. C. Burant, S. S. Iyengar, 
 J. Tomasi, M. Cossi, J. M. Millam, M. Klene, C. Adamo, R. Cammi, 
 J. W. Ochterski, R. L. Martin, K. Morokuma, O. Farkas, 
 J. B. Foresman, and D. J. Fox, Gaussian, Inc., Wallingford CT, 2016.
 
 ******************************************
 Gaussian 16:  ES64L-G16RevA.03 25-Dec-2016
                 6-Mar-2020 
 ******************************************
 %chk=glycine_OPT.chk
 -----------------------------------------------
 # UHF/6-31G(d) OPT Freq GFPrint Pop=Full Nosymm
 -----------------------------------------------
 1/18=20,19=15,38=1/1,3;
 2/9=110,12=2,15=1,17=6,18=5,40=1/2;
 3/5=1,6=6,7=1,11=2,24=100,25=1,30=1,71=1,116=2/1,2,3;
 4//1;
 5/5=2,38=5/2;
 6/7=3,28=1/1;
 7/30=1/1,2,3,16;
 1/18=20,19=15/3(2);
 2/9=110,15=1/2;
 99//99;
 2/9=110,15=1/2;
 3/5=1,6=6,7=1,11=2,25=1,30=1,71=1,116=2/1,2,3;
 4/5=5,16=3,69=1/1;
 5/5=2,38=5/2;
 7/30=1/1,2,3,16;
 1/18=20,19=15/3(-5);
 2/9=110,15=1/2;
 6/7=3,19=2,28=1/1;
 99/9=1/99;
 -----------------
 C1, Pilling 2011.
 -----------------
 Symbolic Z-matrix:
 Charge =  0 Multiplicity = 1
 C
 O                    1    B1
 O                    1    B2       2    A1
 H                    3    B3       1    A2       2    D1       0
 C                    1    B4       2    A3       3    D2       0
 H                    5    B5       1    A4       2    D3       0
 H                    5    B6       1    A5       2    D4       0
 N                    5    B7       1    A6       2    D5       0
 H                    8    B8       5    A7       1    D6       0
 H                    8    B9       5    A8       1    D7       0
       Variables:
  B1                    1.18231                  
  B2                    1.33748                  
  B3                    0.95193                  
  B4                    1.51742                  
  B5                    1.0859                   
  B6                    1.0859                   
  B7                    1.44021                  
  B8                    0.99722                  
  B9                    0.99722                  
  A1                  122.49265                  
  A2                  108.0235                   
  A3                  127.74783                  
  A4                  106.38803                  
  A5                  106.38803                  
  A6                  113.24921                  
  A7                  112.77375                  
  A8                  112.77375                  
  D1                    0.                       
  D2                  180.                       
  D3                  123.89986                  
  D4                 -123.89986                  
  D5                    0.                       
  D6                  135.3222                   
  D7                 -100.7504                   
 

 GradGradGradGradGradGradGradGradGradGradGradGradGradGradGradGradGradGrad
 Berny optimization.
 Initialization pass.
                           ----------------------------
                           !    Initial Parameters    !
                           ! (Angstroms and Degrees)  !
 --------------------------                            --------------------------
 ! Name  Definition              Value          Derivative Info.                !
 --------------------------------------------------------------------------------
 ! R1    R(1,2)                  1.1823         estimate D2E/DX2                !
 ! R2    R(1,3)                  1.3375         estimate D2E/DX2                !
 ! R3    R(1,5)                  1.5174         estimate D2E/DX2                !
 ! R4    R(3,4)                  0.9519         estimate D2E/DX2                !
 ! R5    R(5,6)                  1.0859         estimate D2E/DX2                !
 ! R6    R(5,7)                  1.0859         estimate D2E/DX2                !
 ! R7    R(5,8)                  1.4402         estimate D2E/DX2                !
 ! R8    R(8,9)                  0.9972         estimate D2E/DX2                !
 ! R9    R(8,10)                 0.9972         estimate D2E/DX2                !
 ! A1    A(2,1,3)              122.4926         estimate D2E/DX2                !
 ! A2    A(2,1,5)              127.7478         estimate D2E/DX2                !
 ! A3    A(3,1,5)              109.7595         estimate D2E/DX2                !
 ! A4    A(1,3,4)              108.0235         estimate D2E/DX2                !
 ! A5    A(1,5,6)              106.388          estimate D2E/DX2                !
 ! A6    A(1,5,7)              106.388          estimate D2E/DX2                !
 ! A7    A(1,5,8)              113.2492         estimate D2E/DX2                !
 ! A8    A(6,5,7)              105.555          estimate D2E/DX2                !
 ! A9    A(6,5,8)              112.35           estimate D2E/DX2                !
 ! A10   A(7,5,8)              112.35           estimate D2E/DX2                !
 ! A11   A(5,8,9)              112.7738         estimate D2E/DX2                !
 ! A12   A(5,8,10)             112.7738         estimate D2E/DX2                !
 ! A13   A(9,8,10)             108.9455         estimate D2E/DX2                !
 ! D1    D(2,1,3,4)              0.0            estimate D2E/DX2                !
 ! D2    D(5,1,3,4)            180.0            estimate D2E/DX2                !
 ! D3    D(2,1,5,6)            123.8999         estimate D2E/DX2                !
 ! D4    D(2,1,5,7)           -123.8999         estimate D2E/DX2                !
 ! D5    D(2,1,5,8)              0.0            estimate D2E/DX2                !
 ! D6    D(3,1,5,6)            -56.1001         estimate D2E/DX2                !
 ! D7    D(3,1,5,7)             56.1001         estimate D2E/DX2                !
 ! D8    D(3,1,5,8)            180.0            estimate D2E/DX2                !
 ! D9    D(1,5,8,9)            135.3222         estimate D2E/DX2                !
 ! D10   D(1,5,8,10)          -100.7504         estimate D2E/DX2                !
 ! D11   D(6,5,8,9)             14.7479         estimate D2E/DX2                !
 ! D12   D(6,5,8,10)           138.6753         estimate D2E/DX2                !
 ! D13   D(7,5,8,9)           -104.1035         estimate D2E/DX2                !
 ! D14   D(7,5,8,10)            19.8239         estimate D2E/DX2                !
 --------------------------------------------------------------------------------
 Trust Radius=3.00D-01 FncErr=1.00D-07 GrdErr=1.00D-07 EigMax=2.50D+02 EigMin=1.00D-04
 Number of steps in this run=     46 maximum allowed number of steps=    100.
 GradGradGradGradGradGradGradGradGradGradGradGradGradGradGradGradGradGrad

                          Input orientation:                          
 ---------------------------------------------------------------------
 Center     Atomic      Atomic             Coordinates (Angstroms)
 Number     Number       Type             X           Y           Z
 ---------------------------------------------------------------------
      1          6           0        0.000000    0.000000    0.000000
      2          8           0        0.000000    0.000000    1.182311
      3          8           0        1.128111    0.000000   -0.718482
      4          1           0        1.862813    0.000000   -0.113188
      5          6           0       -1.199842    0.000000   -0.928945
      6          1           0       -1.086389    0.864693   -1.575945
      7          1           0       -1.086389   -0.864693   -1.575945
      8          7           0       -2.459442    0.000000   -0.230652
      9          1           0       -3.114056    0.646502   -0.615312
     10          1           0       -2.880209   -0.903340   -0.193492
 ---------------------------------------------------------------------
                    Distance matrix (angstroms):
                    1          2          3          4          5
     1  C    0.000000
     2  O    1.182311   0.000000
     3  O    1.337479   2.210350   0.000000
     4  H    1.866248   2.269006   0.951928   0.000000
     5  C    1.517419   2.428378   2.337447   3.169434   0.000000
     6  H    2.100366   3.088027   2.527241   3.403695   1.085899
     7  H    2.100366   3.088027   2.527241   3.403695   1.085899
     8  N    2.470234   2.836427   3.620569   4.323851   1.440210
     9  H    3.239432   3.653322   4.292388   5.043741   2.044638
    10  H    3.024742   3.317297   4.142254   4.828947   2.044638
                    6          7          8          9         10
     6  H    0.000000
     7  H    1.729386   0.000000
     8  N    2.107792   2.107792   0.000000
     9  H    2.254298   2.705173   0.997220   0.000000
    10  H    2.873136   2.265052   0.997220   1.623154   0.000000
 Symmetry turned off by external request.
 Stoichiometry    C2H5NO2
 Framework group  C1[X(C2H5NO2)]
 Deg. of freedom    24
 Full point group                 C1      NOp   1
 Rotational constants (GHZ):          10.6661554           3.8405777           2.9132038
 Standard basis: 6-31G(d) (6D, 7F)
 AO basis set (Overlap normalization):
 Atom C1       Shell     1 S   6     bf    1 -     1          0.000000000000          0.000000000000          0.000000000000
      0.3047524880D+04  0.1834737132D-02
      0.4573695180D+03  0.1403732281D-01
      0.1039486850D+03  0.6884262226D-01
      0.2921015530D+02  0.2321844432D+00
      0.9286662960D+01  0.4679413484D+00
      0.3163926960D+01  0.3623119853D+00
 Atom C1       Shell     2 SP   3    bf    2 -     5          0.000000000000          0.000000000000          0.000000000000
      0.7868272350D+01 -0.1193324198D+00  0.6899906659D-01
      0.1881288540D+01 -0.1608541517D+00  0.3164239610D+00
      0.5442492580D+00  0.1143456438D+01  0.7443082909D+00
 Atom C1       Shell     3 SP   1    bf    6 -     9          0.000000000000          0.000000000000          0.000000000000
      0.1687144782D+00  0.1000000000D+01  0.1000000000D+01
 Atom C1       Shell     4 D   1     bf   10 -    15          0.000000000000          0.000000000000          0.000000000000
      0.8000000000D+00  0.1000000000D+01
 Atom O2       Shell     5 S   6     bf   16 -    16          0.000000000000          0.000000000000          2.234243473835
      0.5484671660D+04  0.1831074430D-02
      0.8252349460D+03  0.1395017220D-01
      0.1880469580D+03  0.6844507810D-01
      0.5296450000D+02  0.2327143360D+00
      0.1689757040D+02  0.4701928980D+00
      0.5799635340D+01  0.3585208530D+00
 Atom O2       Shell     6 SP   3    bf   17 -    20          0.000000000000          0.000000000000          2.234243473835
      0.1553961625D+02 -0.1107775495D+00  0.7087426823D-01
      0.3599933586D+01 -0.1480262627D+00  0.3397528391D+00
      0.1013761750D+01  0.1130767015D+01  0.7271585773D+00
 Atom O2       Shell     7 SP   1    bf   21 -    24          0.000000000000          0.000000000000          2.234243473835
      0.2700058226D+00  0.1000000000D+01  0.1000000000D+01
 Atom O2       Shell     8 D   1     bf   25 -    30          0.000000000000          0.000000000000          2.234243473835
      0.8000000000D+00  0.1000000000D+01
 Atom O3       Shell     9 S   6     bf   31 -    31          2.131820607960          0.000000000000         -1.357734953546
      0.5484671660D+04  0.1831074430D-02
      0.8252349460D+03  0.1395017220D-01
      0.1880469580D+03  0.6844507810D-01
      0.5296450000D+02  0.2327143360D+00
      0.1689757040D+02  0.4701928980D+00
      0.5799635340D+01  0.3585208530D+00
 Atom O3       Shell    10 SP   3    bf   32 -    35          2.131820607960          0.000000000000         -1.357734953546
      0.1553961625D+02 -0.1107775495D+00  0.7087426823D-01
      0.3599933586D+01 -0.1480262627D+00  0.3397528391D+00
      0.1013761750D+01  0.1130767015D+01  0.7271585773D+00
 Atom O3       Shell    11 SP   1    bf   36 -    39          2.131820607960          0.000000000000         -1.357734953546
      0.2700058226D+00  0.1000000000D+01  0.1000000000D+01
 Atom O3       Shell    12 D   1     bf   40 -    45          2.131820607960          0.000000000000         -1.357734953546
      0.8000000000D+00  0.1000000000D+01
 Atom H4       Shell    13 S   3     bf   46 -    46          3.520206142038          0.000000000000         -0.213895160332
      0.1873113696D+02  0.3349460434D-01
      0.2825394365D+01  0.2347269535D+00
      0.6401216923D+00  0.8137573261D+00
 Atom H4       Shell    14 S   1     bf   47 -    47          3.520206142038          0.000000000000         -0.213895160332
      0.1612777588D+00  0.1000000000D+01
 Atom C5       Shell    15 S   6     bf   48 -    48         -2.267373294740          0.000000000000         -1.755450862387
      0.3047524880D+04  0.1834737132D-02
      0.4573695180D+03  0.1403732281D-01
      0.1039486850D+03  0.6884262226D-01
      0.2921015530D+02  0.2321844432D+00
      0.9286662960D+01  0.4679413484D+00
      0.3163926960D+01  0.3623119853D+00
 Atom C5       Shell    16 SP   3    bf   49 -    52         -2.267373294740          0.000000000000         -1.755450862387
      0.7868272350D+01 -0.1193324198D+00  0.6899906659D-01
      0.1881288540D+01 -0.1608541517D+00  0.3164239610D+00
      0.5442492580D+00  0.1143456438D+01  0.7443082909D+00
 Atom C5       Shell    17 SP   1    bf   53 -    56         -2.267373294740          0.000000000000         -1.755450862387
      0.1687144782D+00  0.1000000000D+01  0.1000000000D+01
 Atom C5       Shell    18 D   1     bf   57 -    62         -2.267373294740          0.000000000000         -1.755450862387
      0.8000000000D+00  0.1000000000D+01
 Atom H6       Shell    19 S   3     bf   63 -    63         -2.052977192306          1.634032955693         -2.978105270810
      0.1873113696D+02  0.3349460434D-01
      0.2825394365D+01  0.2347269535D+00
      0.6401216923D+00  0.8137573261D+00
 Atom H6       Shell    20 S   1     bf   64 -    64         -2.052977192306          1.634032955693         -2.978105270810
      0.1612777588D+00  0.1000000000D+01
 Atom H7       Shell    21 S   3     bf   65 -    65         -2.052977192306         -1.634032955693         -2.978105270810
      0.1873113696D+02  0.3349460434D-01
      0.2825394365D+01  0.2347269535D+00
      0.6401216923D+00  0.8137573261D+00
 Atom H7       Shell    22 S   1     bf   66 -    66         -2.052977192306         -1.634032955693         -2.978105270810
      0.1612777588D+00  0.1000000000D+01
 Atom N8       Shell    23 S   6     bf   67 -    67         -4.647672743529          0.000000000000         -0.435868706537
      0.4173511460D+04  0.1834772160D-02
      0.6274579110D+03  0.1399462700D-01
      0.1429020930D+03  0.6858655181D-01
      0.4023432930D+02  0.2322408730D+00
      0.1282021290D+02  0.4690699481D+00
      0.4390437010D+01  0.3604551991D+00
 Atom N8       Shell    24 SP   3    bf   68 -    71         -4.647672743529          0.000000000000         -0.435868706537
      0.1162636186D+02 -0.1149611817D+00  0.6757974388D-01
      0.2716279807D+01 -0.1691174786D+00  0.3239072959D+00
      0.7722183966D+00  0.1145851947D+01  0.7408951398D+00
 Atom N8       Shell    25 SP   1    bf   72 -    75         -4.647672743529          0.000000000000         -0.435868706537
      0.2120314975D+00  0.1000000000D+01  0.1000000000D+01
 Atom N8       Shell    26 D   1     bf   76 -    81         -4.647672743529          0.000000000000         -0.435868706537
      0.8000000000D+00  0.1000000000D+01
 Atom H9       Shell    27 S   3     bf   82 -    82         -5.884713698313          1.221712618877         -1.162771995094
      0.1873113696D+02  0.3349460434D-01
      0.2825394365D+01  0.2347269535D+00
      0.6401216923D+00  0.8137573261D+00
 Atom H9       Shell    28 S   1     bf   83 -    83         -5.884713698313          1.221712618877         -1.162771995094
      0.1612777588D+00  0.1000000000D+01
 Atom H10      Shell    29 S   3     bf   84 -    84         -5.442806281999         -1.707065317848         -0.365646954561
      0.1873113696D+02  0.3349460434D-01
      0.2825394365D+01  0.2347269535D+00
      0.6401216923D+00  0.8137573261D+00
 Atom H10      Shell    30 S   1     bf   85 -    85         -5.442806281999         -1.707065317848         -0.365646954561
      0.1612777588D+00  0.1000000000D+01
    85 basis functions,   160 primitive gaussians,    85 cartesian basis functions
    20 alpha electrons       20 beta electrons
       nuclear repulsion energy       180.1045548086 Hartrees.
 NAtoms=   10 NActive=   10 NUniq=   10 SFac= 1.00D+00 NAtFMM=   60 NAOKFM=F Big=F
 Integral buffers will be    131072 words long.
 Raffenetti 2 integral format.
 Two-electron integral symmetry is turned off.
 One-electron integrals computed using PRISM.
 NBasis=    85 RedAO= T EigKep=  3.73D-03  NBF=    85
 NBsUse=    85 1.00D-06 EigRej= -1.00D+00 NBFU=    85
 ExpMin= 1.61D-01 ExpMax= 5.48D+03 ExpMxC= 8.25D+02 IAcc=3 IRadAn=         5 AccDes= 0.00D+00
 Harris functional with IExCor=  205 and IRadAn=       5 diagonalized for initial guess.
 HarFok:  IExCor=  205 AccDes= 0.00D+00 IRadAn=         5 IDoV= 1 UseB2=F ITyADJ=14
 ICtDFT=  3500011 ScaDFX=  1.000000  1.000000  1.000000  1.000000
 FoFCou: FMM=F IPFlag=           0 FMFlag=      100000 FMFlg1=           0
         NFxFlg=           0 DoJE=T BraDBF=F KetDBF=T FulRan=T
         wScrn=  0.000000 ICntrl=       500 IOpCl=  0 I1Cent=   200000004 NGrid=           0
         NMat0=    1 NMatS0=      1 NMatT0=    0 NMatD0=    1 NMtDS0=    0 NMtDT0=    0
 Symmetry not used in FoFCou.
 Initial guess <Sx>= 0.0000 <Sy>= 0.0000 <Sz>= 0.0000 <S**2>=-0.0000 S=-0.0000
 Keep R1 and R2 ints in memory in canonical form, NReq=14223321.
 Requested convergence on RMS density matrix=1.00D-08 within 128 cycles.
 Requested convergence on MAX density matrix=1.00D-06.
 Requested convergence on             energy=1.00D-06.
 No special actions if energy rises.
 SCF Done:  E(UHF) =  -282.822652518     A.U. after   13 cycles
            NFock= 13  Conv=0.74D-08     -V/T= 2.0019
 <Sx>= 0.0000 <Sy>= 0.0000 <Sz>= 0.0000 <S**2>=-0.0000 S=-0.0000
 <L.S>= 0.000000000000E+00
 Annihilation of the first spin contaminant:
 S**2 before annihilation    -0.0000,   after     0.0000

 **********************************************************************

            Population analysis using the SCF density.

 **********************************************************************

 Alpha  occ. eigenvalues --  -20.60934 -20.54703 -15.54836 -11.37398 -11.27337
 Alpha  occ. eigenvalues --   -1.47011  -1.36211  -1.19551  -0.97985  -0.81151
 Alpha  occ. eigenvalues --   -0.70279  -0.69605  -0.68174  -0.62926  -0.61367
 Alpha  occ. eigenvalues --   -0.57820  -0.53809  -0.47514  -0.44734  -0.39575
 Alpha virt. eigenvalues --    0.19825   0.21461   0.23473   0.28140   0.29078
 Alpha virt. eigenvalues --    0.36986   0.40118   0.46531   0.49846   0.55373
 Alpha virt. eigenvalues --    0.74028   0.77815   0.79451   0.84381   0.86199
 Alpha virt. eigenvalues --    0.95217   0.96776   1.00628   1.06123   1.07791
 Alpha virt. eigenvalues --    1.10763   1.11495   1.16726   1.18756   1.21762
 Alpha virt. eigenvalues --    1.23311   1.23658   1.26232   1.29211   1.36434
 Alpha virt. eigenvalues --    1.38106   1.56105   1.62423   1.68046   1.70239
 Alpha virt. eigenvalues --    1.75106   1.82408   1.97863   1.99433   2.07406
 Alpha virt. eigenvalues --    2.08492   2.11480   2.21116   2.25383   2.32461
 Alpha virt. eigenvalues --    2.35523   2.38574   2.44360   2.52368   2.58558
 Alpha virt. eigenvalues --    2.73583   2.75061   2.81048   2.93225   2.97175
 Alpha virt. eigenvalues --    3.03464   3.11158   3.28163   3.40312   3.50230
 Alpha virt. eigenvalues --    4.15607   4.31871   4.51151   4.68057   4.91033
  Beta  occ. eigenvalues --  -20.60934 -20.54703 -15.54836 -11.37398 -11.27337
  Beta  occ. eigenvalues --   -1.47011  -1.36211  -1.19551  -0.97985  -0.81151
  Beta  occ. eigenvalues --   -0.70279  -0.69605  -0.68174  -0.62926  -0.61367
  Beta  occ. eigenvalues --   -0.57820  -0.53809  -0.47514  -0.44734  -0.39575
  Beta virt. eigenvalues --    0.19825   0.21461   0.23473   0.28140   0.29078
  Beta virt. eigenvalues --    0.36986   0.40118   0.46531   0.49846   0.55373
  Beta virt. eigenvalues --    0.74028   0.77815   0.79451   0.84381   0.86199
  Beta virt. eigenvalues --    0.95217   0.96776   1.00628   1.06123   1.07791
  Beta virt. eigenvalues --    1.10763   1.11495   1.16726   1.18756   1.21762
  Beta virt. eigenvalues --    1.23311   1.23658   1.26232   1.29211   1.36434
  Beta virt. eigenvalues --    1.38106   1.56105   1.62423   1.68046   1.70239
  Beta virt. eigenvalues --    1.75106   1.82408   1.97863   1.99433   2.07406
  Beta virt. eigenvalues --    2.08492   2.11480   2.21116   2.25383   2.32461
  Beta virt. eigenvalues --    2.35523   2.38574   2.44360   2.52368   2.58558
  Beta virt. eigenvalues --    2.73583   2.75061   2.81048   2.93225   2.97175
  Beta virt. eigenvalues --    3.03464   3.11158   3.28163   3.40312   3.50230
  Beta virt. eigenvalues --    4.15607   4.31871   4.51151   4.68057   4.91033
     Alpha Molecular Orbital Coefficients:
                           1         2         3         4         5
                           O         O         O         O         O
     Eigenvalues --   -20.60934 -20.54703 -15.54836 -11.37398 -11.27337
   1 1   C  1S          0.00000  -0.00001  -0.00001   0.99582  -0.00326
   2        2S          0.00040   0.00038  -0.00003   0.02646  -0.00007
   3        2PX         0.00025  -0.00001   0.00003   0.00112  -0.00010
   4        2PY         0.00000   0.00000  -0.00000  -0.00001  -0.00000
   5        2PZ        -0.00017  -0.00022   0.00001  -0.00002  -0.00004
   6        3S         -0.00028  -0.00060  -0.00011  -0.00568   0.00453
   7        3PX         0.00016  -0.00017  -0.00005   0.00334  -0.00330
   8        3PY        -0.00000   0.00000   0.00004  -0.00000   0.00001
   9        3PZ         0.00046  -0.00067  -0.00033   0.00422  -0.00086
  10        4XX        -0.00010  -0.00005  -0.00006  -0.00130  -0.00046
  11        4YY        -0.00005  -0.00000  -0.00003  -0.00246  -0.00017
  12        4ZZ        -0.00003  -0.00097  -0.00003  -0.00057  -0.00041
  13        4XY        -0.00000  -0.00000  -0.00000   0.00000  -0.00000
  14        4XZ         0.00007   0.00001  -0.00000  -0.00021  -0.00016
  15        4YZ         0.00000  -0.00000  -0.00000  -0.00000  -0.00000
  16 2   O  1S         -0.00031   0.99466  -0.00001  -0.00035   0.00000
  17        2S          0.00001   0.02109  -0.00006   0.00081  -0.00003
  18        2PX        -0.00004   0.00006  -0.00000   0.00006   0.00001
  19        2PY         0.00000  -0.00001   0.00000  -0.00000   0.00000
  20        2PZ         0.00004  -0.00171   0.00000  -0.00040  -0.00001
  21        3S         -0.00026   0.00492   0.00041  -0.00444  -0.00028
  22        3PX        -0.00006   0.00002   0.00004  -0.00086   0.00057
  23        3PY         0.00000   0.00000  -0.00002   0.00000  -0.00000
  24        3PZ         0.00004  -0.00016  -0.00012   0.00202   0.00001
  25        4XX         0.00001  -0.00400  -0.00005   0.00022   0.00003
  26        4YY        -0.00002  -0.00422  -0.00004   0.00043  -0.00011
  27        4ZZ        -0.00001  -0.00349  -0.00002   0.00028   0.00010
  28        4XY         0.00000  -0.00000  -0.00000  -0.00000  -0.00000
  29        4XZ         0.00007  -0.00001  -0.00001   0.00020  -0.00010
  30        4YZ        -0.00000  -0.00000   0.00000  -0.00000   0.00000
  31 3   O  1S          0.99459   0.00030  -0.00001  -0.00011  -0.00005
  32        2S          0.02125  -0.00006  -0.00003   0.00065  -0.00034
  33        2PX        -0.00008   0.00001   0.00001  -0.00006   0.00010
  34        2PY        -0.00000   0.00000   0.00000  -0.00000   0.00000
  35        2PZ         0.00125  -0.00005   0.00001   0.00015  -0.00001
  36        3S          0.00432   0.00022   0.00011  -0.00163   0.00133
  37        3PX        -0.00016  -0.00007  -0.00007   0.00077  -0.00061
  38        3PY         0.00000   0.00000  -0.00001   0.00000  -0.00000
  39        3PZ        -0.00059   0.00009   0.00002  -0.00173   0.00029
  40        4XX        -0.00421   0.00007  -0.00002  -0.00040  -0.00001
  41        4YY        -0.00404  -0.00009  -0.00004   0.00052  -0.00027
  42        4ZZ        -0.00414  -0.00010  -0.00002  -0.00013  -0.00009
  43        4XY        -0.00000  -0.00000   0.00000  -0.00000   0.00000
  44        4XZ        -0.00003   0.00002  -0.00002   0.00047  -0.00002
  45        4YZ         0.00000  -0.00000  -0.00000   0.00000  -0.00000
  46 4   H  1S          0.00042  -0.00003   0.00001   0.00034  -0.00001
  47        2S         -0.00026  -0.00000   0.00003  -0.00000   0.00036
  48 5   C  1S         -0.00001   0.00000  -0.00001   0.00290   0.99584
  49        2S          0.00001  -0.00002   0.00022   0.00008   0.02854
  50        2PX         0.00001   0.00001  -0.00018  -0.00003  -0.00004
  51        2PY         0.00000   0.00000   0.00000  -0.00000   0.00001
  52        2PZ        -0.00000  -0.00001   0.00012  -0.00007   0.00028
  53        3S          0.00062  -0.00006   0.00140   0.00433  -0.01750
  54        3PX        -0.00024  -0.00021  -0.00081   0.00237  -0.00100
  55        3PY        -0.00000  -0.00001  -0.00010   0.00004  -0.00005
  56        3PZ         0.00024  -0.00000   0.00006   0.00134  -0.00127
  57        4XX        -0.00007   0.00009  -0.00018  -0.00043  -0.00156
  58        4YY        -0.00004  -0.00001  -0.00009  -0.00013  -0.00156
  59        4ZZ         0.00000  -0.00004  -0.00011  -0.00030  -0.00173
  60        4XY        -0.00000   0.00000   0.00000  -0.00000   0.00000
  61        4XZ        -0.00002  -0.00001   0.00006  -0.00014  -0.00010
  62        4YZ         0.00000  -0.00000   0.00001   0.00000  -0.00001
  63 6   H  1S          0.00003   0.00001  -0.00007  -0.00017   0.00027
  64        2S         -0.00005  -0.00003  -0.00016   0.00027   0.00279
  65 7   H  1S          0.00003   0.00001  -0.00011  -0.00017   0.00027
  66        2S         -0.00005  -0.00004  -0.00019   0.00032   0.00274
  67 8   N  1S          0.00001   0.00001   0.99497  -0.00004  -0.00023
  68        2S          0.00005   0.00003   0.02506  -0.00019   0.00004
  69        2PX         0.00001   0.00001  -0.00014  -0.00006  -0.00000
  70        2PY         0.00000  -0.00000  -0.00038   0.00001  -0.00003
  71        2PZ        -0.00000   0.00001  -0.00129  -0.00001   0.00001
  72        3S         -0.00045  -0.00023  -0.00238   0.00070   0.00309
  73        3PX        -0.00019  -0.00009  -0.00020   0.00021   0.00105
  74        3PY        -0.00000   0.00002   0.00025  -0.00009   0.00013
  75        3PZ         0.00009   0.00003   0.00106  -0.00021  -0.00049
  76        4XX         0.00001   0.00002  -0.00349  -0.00003  -0.00050
  77        4YY         0.00003   0.00004  -0.00345  -0.00017  -0.00004
  78        4ZZ         0.00004   0.00001  -0.00332  -0.00004  -0.00026
  79        4XY         0.00000  -0.00000   0.00002   0.00001  -0.00001
  80        4XZ         0.00000   0.00002   0.00010  -0.00001   0.00025
  81        4YZ         0.00000  -0.00000   0.00006   0.00000  -0.00001
  82 9   H  1S          0.00002  -0.00000   0.00029  -0.00001  -0.00011
  83        2S         -0.00002  -0.00001   0.00050   0.00008   0.00008
  84 10  H  1S          0.00002   0.00001   0.00028  -0.00003  -0.00008
  85        2S         -0.00002   0.00001   0.00050  -0.00007   0.00028
                           6         7         8         9        10
                           O         O         O         O         O
     Eigenvalues --    -1.47011  -1.36211  -1.19551  -0.97985  -0.81151
   1 1   C  1S         -0.11730  -0.05041  -0.01194  -0.08137   0.08691
   2        2S          0.22488   0.09772   0.02673   0.17554  -0.19122
   3        2PX         0.08004  -0.07601  -0.04819  -0.10396  -0.14801
   4        2PY        -0.00015  -0.00014  -0.00023   0.00011   0.00133
   5        2PZ         0.04972   0.21690  -0.04999  -0.15376   0.10157
   6        3S          0.04793   0.02975   0.01843   0.10971  -0.11334
   7        3PX        -0.01836   0.00361   0.00138  -0.01683   0.00892
   8        3PY        -0.00012  -0.00017  -0.00007  -0.00001   0.00062
   9        3PZ        -0.01320  -0.03285  -0.01075  -0.04913   0.00882
  10        4XX         0.00270  -0.02900   0.00660   0.00661  -0.00338
  11        4YY        -0.01950  -0.00809  -0.00027  -0.00618   0.01030
  12        4ZZ         0.01595   0.02727  -0.00115   0.00437  -0.00273
  13        4XY         0.00003   0.00007   0.00003   0.00006  -0.00007
  14        4XZ        -0.01328   0.01470   0.00541   0.00791   0.01954
  15        4YZ        -0.00004  -0.00005  -0.00002  -0.00006  -0.00007
  16 2   O  1S         -0.10855  -0.16530   0.02139   0.03600  -0.03661
  17        2S          0.23837   0.35738  -0.04764  -0.08233   0.08042
  18        2PX         0.01177  -0.00902  -0.01243  -0.03321  -0.04555
  19        2PY        -0.00011  -0.00018  -0.00013   0.00018   0.00068
  20        2PZ        -0.09364  -0.11024   0.00781  -0.02149   0.07882
  21        3S          0.20331   0.34685  -0.04416  -0.08093   0.12633
  22        3PX         0.01136  -0.00267  -0.00657  -0.01415  -0.02928
  23        3PY        -0.00023  -0.00037   0.00006   0.00008   0.00019
  24        3PZ        -0.03239  -0.04318   0.00289  -0.01468   0.03977
  25        4XX        -0.00212  -0.00347   0.00026  -0.00206   0.00185
  26        4YY        -0.00055  -0.00393   0.00052   0.00065  -0.00054
  27        4ZZ         0.01238   0.01324  -0.00194  -0.00028  -0.00607
  28        4XY         0.00006   0.00011  -0.00001  -0.00000   0.00004
  29        4XZ        -0.00289   0.00152   0.00183   0.00338   0.00703
  30        4YZ         0.00004   0.00005  -0.00000  -0.00002  -0.00011
  31 3   O  1S         -0.15674   0.13342   0.00835   0.03006  -0.02161
  32        2S          0.35377  -0.29889  -0.01653  -0.06578   0.05816
  33        2PX        -0.03246  -0.00313  -0.01451  -0.16043   0.39858
  34        2PY        -0.00003  -0.00001  -0.00004   0.00002   0.00071
  35        2PZ         0.08324  -0.03974  -0.01058  -0.03906  -0.02314
  36        3S          0.31919  -0.30467  -0.03084  -0.10438   0.04434
  37        3PX        -0.01566   0.00048  -0.00142  -0.07415   0.24141
  38        3PY         0.00000   0.00008  -0.00001   0.00012   0.00041
  39        3PZ         0.04530  -0.01932  -0.00586  -0.02054  -0.01520
  40        4XX         0.01783  -0.01143   0.00043   0.00176   0.00456
  41        4YY        -0.00071   0.00091   0.00103   0.00157   0.00335
  42        4ZZ         0.01426  -0.00549  -0.00084  -0.00562   0.00723
  43        4XY         0.00000   0.00000   0.00000  -0.00000  -0.00005
  44        4XZ        -0.00023  -0.00810  -0.00098  -0.01414   0.03549
  45        4YZ        -0.00001   0.00001  -0.00000  -0.00000   0.00004
  46 4   H  1S          0.08726  -0.07848  -0.01193  -0.08894   0.17401
  47        2S         -0.00461   0.00620  -0.00198  -0.01796   0.05722
  48 5   C  1S         -0.01647  -0.00488  -0.10426  -0.13203  -0.08376
  49        2S          0.03159   0.00873   0.19686   0.25428   0.15822
  50        2PX         0.01960  -0.00315  -0.07960   0.13147  -0.06770
  51        2PY        -0.00001  -0.00006  -0.00143   0.00207   0.00555
  52        2PZ         0.01437   0.01310   0.04280  -0.00941  -0.07494
  53        3S          0.00652  -0.00060   0.11974   0.25738   0.19027
  54        3PX        -0.00213  -0.01647  -0.00345   0.02092  -0.00860
  55        3PY        -0.00057  -0.00005  -0.00173  -0.00194   0.00056
  56        3PZ         0.00051   0.00538   0.00242  -0.00645  -0.03565
  57        4XX         0.00499  -0.00034   0.01524  -0.00260  -0.00915
  58        4YY        -0.00011  -0.00082  -0.00138   0.00950   0.01039
  59        4ZZ         0.00262   0.00292   0.00139   0.00590   0.00356
  60        4XY         0.00003  -0.00000   0.00030  -0.00032  -0.00044
  61        4XZ         0.00437   0.00154  -0.01216   0.01087  -0.00865
  62        4YZ        -0.00006  -0.00003  -0.00051  -0.00028  -0.00028
  63 6   H  1S          0.00643   0.00008   0.04790   0.09998   0.08722
  64        2S          0.00129  -0.00222   0.00692   0.02002   0.03372
  65 7   H  1S          0.00636   0.00010   0.04807   0.09803   0.08242
  66        2S          0.00059  -0.00235   0.00437   0.01768   0.03048
  67 8   N  1S         -0.00461  -0.00642  -0.17732   0.08215   0.03128
  68        2S          0.01117   0.01386   0.36770  -0.16777  -0.06844
  69        2PX         0.00529   0.00455   0.01397   0.11638   0.13524
  70        2PY        -0.00031  -0.00036  -0.01738   0.01501   0.01919
  71        2PZ        -0.00133  -0.00104  -0.07031   0.00056  -0.04557
  72        3S          0.00280   0.00318   0.36635  -0.23277  -0.09179
  73        3PX        -0.00277   0.00055   0.00063   0.04143   0.07713
  74        3PY         0.00036  -0.00062  -0.00945   0.00862   0.01006
  75        3PZ        -0.00076   0.00433  -0.03716   0.01155  -0.01459
  76        4XX         0.00112   0.00137   0.01281   0.00179   0.00104
  77        4YY         0.00093   0.00028   0.01256  -0.01116  -0.01101
  78        4ZZ         0.00066   0.00010  -0.00172   0.00527   0.00538
  79        4XY        -0.00011   0.00005  -0.00110  -0.00034  -0.00117
  80        4XZ        -0.00033   0.00025  -0.00282  -0.01004  -0.01140
  81        4YZ        -0.00014  -0.00007  -0.00529   0.00407   0.00261
  82 9   H  1S          0.00146   0.00316   0.11251  -0.08860  -0.05699
  83        2S         -0.00116   0.00040   0.00267  -0.01595  -0.01598
  84 10  H  1S          0.00208   0.00312   0.11270  -0.08658  -0.06664
  85        2S         -0.00028  -0.00002   0.00260  -0.01521  -0.01965
                          11        12        13        14        15
                           O         O         O         O         O
     Eigenvalues --    -0.70279  -0.69605  -0.68174  -0.62926  -0.61367
   1 1   C  1S          0.04647   0.06231   0.01449   0.00987   0.02098
   2        2S         -0.11219  -0.14855  -0.03078  -0.02035  -0.04746
   3        2PX         0.14584  -0.01863   0.26445   0.04593   0.09122
   4        2PY         0.07704  -0.06126  -0.07096   0.24000  -0.04774
   5        2PZ        -0.07365  -0.15865   0.04118  -0.03781  -0.11534
   6        3S         -0.07268  -0.07516  -0.07523  -0.03029  -0.03278
   7        3PX         0.02553  -0.00373   0.08487   0.02900   0.03959
   8        3PY         0.02522  -0.02085  -0.02598   0.11946  -0.02429
   9        3PZ         0.02952  -0.00508   0.06156   0.00794   0.00553
  10        4XX         0.00081  -0.00249   0.00741   0.00630   0.02003
  11        4YY         0.00231   0.00666  -0.00159   0.00087   0.00101
  12        4ZZ         0.00173   0.00471  -0.00473  -0.00394  -0.01371
  13        4XY        -0.00041  -0.00006  -0.00093   0.01447  -0.00399
  14        4XZ        -0.00606  -0.01042   0.00471  -0.00037  -0.01035
  15        4YZ        -0.00106   0.00080   0.00051   0.00457  -0.00134
  16 2   O  1S         -0.04827  -0.07604   0.00267  -0.00917  -0.02324
  17        2S          0.11313   0.17564  -0.00298   0.02162   0.05441
  18        2PX         0.10223  -0.03984   0.23627   0.04317   0.04882
  19        2PY         0.05716  -0.04698  -0.05550   0.21909  -0.04592
  20        2PZ         0.18778   0.31382  -0.00799   0.06850   0.19366
  21        3S          0.16453   0.28539  -0.03171   0.03905   0.10240
  22        3PX         0.06258  -0.02459   0.14256   0.02563   0.02922
  23        3PY         0.03619  -0.03006  -0.03489   0.13880  -0.02969
  24        3PZ         0.10493   0.17070   0.00096   0.03936   0.11279
  25        4XX         0.00498   0.00695   0.00193   0.00213   0.00489
  26        4YY         0.00341   0.00616   0.00003   0.00116   0.00325
  27        4ZZ        -0.01254  -0.02145   0.00104  -0.00457  -0.01266
  28        4XY         0.00003   0.00001  -0.00029   0.00144  -0.00038
  29        4XZ        -0.00829   0.00257  -0.01690  -0.00258  -0.00363
  30        4YZ        -0.00640   0.00502   0.00592  -0.02120   0.00429
  31 3   O  1S         -0.00797  -0.04090   0.03865   0.00651   0.00043
  32        2S          0.01600   0.09602  -0.09133  -0.01364   0.00076
  33        2PX        -0.13041  -0.10086  -0.07480  -0.02682  -0.12232
  34        2PY         0.07489  -0.06206  -0.07826   0.38293  -0.08704
  35        2PZ        -0.04142  -0.26826   0.27972   0.06419   0.09387
  36        3S          0.04118   0.15208  -0.14098  -0.03215  -0.01047
  37        3PX        -0.08962  -0.06613  -0.05448  -0.01810  -0.08379
  38        3PY         0.05186  -0.04310  -0.05476   0.27387  -0.06323
  39        3PZ        -0.03150  -0.18362   0.18163   0.04043   0.05703
  40        4XX        -0.00211   0.00366  -0.00666  -0.00065  -0.00239
  41        4YY         0.00049   0.00703  -0.00672  -0.00081  -0.00095
  42        4ZZ        -0.00501  -0.02008   0.01845   0.00395   0.00369
  43        4XY        -0.00247   0.00199   0.00234  -0.00828   0.00172
  44        4XZ        -0.00957  -0.00484  -0.00740  -0.00153  -0.00831
  45        4YZ         0.00452  -0.00371  -0.00464   0.02200  -0.00499
  46 4   H  1S         -0.06378  -0.10198   0.03432   0.00636  -0.02349
  47        2S         -0.01875  -0.03071   0.01083   0.00213  -0.01360
  48 5   C  1S         -0.00938   0.00489  -0.02939  -0.00583  -0.00635
  49        2S          0.01727  -0.01056   0.04817   0.00947   0.02162
  50        2PX        -0.03717   0.04059  -0.08982  -0.03154  -0.23066
  51        2PY         0.17981  -0.13488  -0.13237   0.06246   0.01647
  52        2PZ        -0.16736  -0.06411  -0.20319   0.01678   0.23651
  53        3S          0.02531  -0.01670   0.12375   0.03325  -0.00809
  54        3PX        -0.00151   0.03255  -0.02545  -0.00747  -0.08501
  55        3PY         0.08403  -0.06148  -0.06265   0.02776   0.00564
  56        3PZ        -0.08162  -0.02796  -0.07696   0.01516   0.10014
  57        4XX        -0.00465  -0.00392  -0.00862   0.00002   0.01845
  58        4YY         0.01098   0.00433   0.01438  -0.00105  -0.01926
  59        4ZZ        -0.00427  -0.00163  -0.00244   0.00052  -0.00235
  60        4XY        -0.00223   0.00115  -0.00021   0.01282  -0.00260
  61        4XZ        -0.00509  -0.00086  -0.01008  -0.00475  -0.01839
  62        4YZ        -0.00854   0.00654   0.00679  -0.00459  -0.00073
  63 6   H  1S          0.14301  -0.04021   0.02909   0.03213  -0.08744
  64        2S          0.08676  -0.01899   0.00971   0.02724  -0.06335
  65 7   H  1S         -0.01686   0.08070   0.14980  -0.03732  -0.10157
  66        2S         -0.01319   0.05961   0.08979  -0.03203  -0.07444
  67 8   N  1S          0.00467   0.00093   0.01556  -0.00217  -0.01969
  68        2S         -0.01283  -0.00689  -0.03328   0.00567   0.04629
  69        2PX        -0.08647  -0.05346   0.00264   0.08271   0.37018
  70        2PY         0.25910  -0.18074  -0.13759  -0.21509   0.06793
  71        2PZ        -0.10359   0.03855  -0.06947   0.05518  -0.02839
  72        3S         -0.00258   0.01709  -0.06252   0.00225   0.06142
  73        3PX        -0.04122  -0.01934  -0.00452   0.04549   0.21916
  74        3PY         0.14036  -0.09879  -0.07520  -0.13277   0.04300
  75        3PZ        -0.06139   0.01752  -0.04342   0.03539  -0.00635
  76        4XX         0.00077  -0.00512  -0.00681  -0.00391   0.00467
  77        4YY        -0.01029   0.00881   0.00338   0.00789  -0.01486
  78        4ZZ         0.00953  -0.00521   0.00515  -0.00485   0.00361
  79        4XY        -0.01294   0.00861   0.00478   0.01556  -0.00436
  80        4XZ         0.00715   0.00028  -0.00588  -0.00928  -0.02180
  81        4YZ        -0.01400   0.00860   0.00857   0.01025   0.00133
  82 9   H  1S          0.14998  -0.06000  -0.05499  -0.13346  -0.09839
  83        2S          0.07169  -0.02775  -0.02897  -0.07609  -0.05854
  84 10  H  1S         -0.12447   0.10827   0.05679   0.10477  -0.11806
  85        2S         -0.05583   0.05347   0.02783   0.05706  -0.07107
                          16        17        18        19        20
                           O         O         O         O         O
     Eigenvalues --    -0.57820  -0.53809  -0.47514  -0.44734  -0.39575
   1 1   C  1S         -0.01330   0.00681  -0.00068  -0.00587   0.03125
   2        2S          0.02959  -0.01387   0.00213   0.01651  -0.06786
   3        2PX        -0.10107   0.03271  -0.00320  -0.06055   0.13417
   4        2PY        -0.01947  -0.04566   0.17787   0.00077  -0.00212
   5        2PZ        -0.26319   0.04852  -0.00331  -0.02077   0.09684
   6        3S          0.05611  -0.03149   0.00027   0.01041  -0.17143
   7        3PX        -0.02661   0.02578  -0.00200   0.07911   0.05270
   8        3PY        -0.01382  -0.04495   0.10708   0.00209   0.00039
   9        3PZ         0.00305   0.00731  -0.00359  -0.00814   0.10064
  10        4XX         0.02471  -0.00475   0.00039  -0.00748  -0.00317
  11        4YY         0.00366  -0.00001  -0.00005   0.00319  -0.00149
  12        4ZZ        -0.01901   0.00398  -0.00022   0.00540   0.00232
  13        4XY        -0.00287  -0.01716  -0.01352   0.00092   0.00129
  14        4XZ         0.01121   0.00135  -0.00051   0.05602  -0.02357
  15        4YZ        -0.00122  -0.00589   0.04703   0.00134   0.00195
  16 2   O  1S         -0.02368   0.00314  -0.00048   0.00356   0.00179
  17        2S          0.05866  -0.00820   0.00131  -0.01423   0.00036
  18        2PX        -0.05445   0.04765  -0.00830   0.54557  -0.14024
  19        2PY        -0.02251  -0.06300   0.46435   0.00869   0.00860
  20        2PZ         0.29317  -0.04708   0.00286  -0.00808  -0.04869
  21        3S          0.09732  -0.01294   0.00351  -0.00485  -0.03732
  22        3PX        -0.03042   0.02876  -0.00529   0.40038  -0.12769
  23        3PY        -0.01468  -0.04138   0.35165   0.00763   0.00818
  24        3PZ         0.18195  -0.02998   0.00118  -0.00528  -0.02763
  25        4XX         0.00725  -0.00062   0.00006   0.00204   0.00196
  26        4YY         0.00590  -0.00097  -0.00012  -0.00259   0.00005
  27        4ZZ        -0.01918   0.00262   0.00005  -0.00331   0.00376
  28        4XY        -0.00013  -0.00063   0.00093  -0.00035  -0.00012
  29        4XZ         0.00695  -0.00307   0.00045  -0.02451   0.00421
  30        4YZ         0.00183   0.00485  -0.03504  -0.00059  -0.00046
  31 3   O  1S          0.04767  -0.00458   0.00017   0.01064  -0.00995
  32        2S         -0.10762   0.01139  -0.00053  -0.01429   0.01464
  33        2PX         0.08905  -0.00495  -0.00039   0.12954  -0.07163
  34        2PY        -0.05183  -0.26155  -0.38066   0.00876   0.01450
  35        2PZ         0.35868  -0.05020   0.00391  -0.19401   0.04591
  36        3S         -0.20647   0.01550  -0.00050  -0.11210   0.09534
  37        3PX         0.05562  -0.00164  -0.00021   0.10117  -0.06664
  38        3PY        -0.03813  -0.19954  -0.32344   0.00667   0.01143
  39        3PZ         0.25466  -0.03891   0.00358  -0.16759   0.03798
  40        4XX         0.00383  -0.00040  -0.00002   0.00889  -0.00707
  41        4YY        -0.00709   0.00141  -0.00012   0.00649  -0.00293
  42        4ZZ         0.02075  -0.00211   0.00012  -0.00660   0.00073
  43        4XY         0.00071   0.00219   0.00116   0.00008   0.00026
  44        4XZ         0.01143  -0.00108   0.00003   0.00715  -0.00509
  45        4YZ        -0.00291  -0.01437  -0.01541   0.00057   0.00092
  46 4   H  1S          0.13984  -0.01694   0.00097   0.00136  -0.02011
  47        2S          0.07536  -0.00938   0.00033   0.05259  -0.04351
  48 5   C  1S         -0.00489  -0.00085   0.00006  -0.01745   0.01005
  49        2S          0.00177  -0.00122   0.00010   0.02811  -0.03767
  50        2PX         0.23682  -0.00495  -0.00097   0.14313  -0.01487
  51        2PY         0.04661   0.34852  -0.06194  -0.03109  -0.04691
  52        2PZ         0.07418  -0.05171   0.00349   0.11422  -0.17302
  53        3S          0.09764   0.01557  -0.00191   0.15437   0.04270
  54        3PX         0.10961  -0.00036  -0.00179   0.10901   0.02171
  55        3PY         0.02948   0.22440  -0.02822  -0.02188  -0.02961
  56        3PZ         0.05725  -0.02070   0.00245   0.10618  -0.08003
  57        4XX         0.00028  -0.00649   0.00076  -0.00214  -0.02746
  58        4YY        -0.00142   0.00411  -0.00039  -0.00337   0.01212
  59        4ZZ         0.00001   0.00274  -0.00031   0.00292   0.01619
  60        4XY        -0.00007   0.01261  -0.00002  -0.00327  -0.00702
  61        4XZ         0.01770  -0.00393   0.00036   0.00314  -0.01896
  62        4YZ        -0.00380  -0.03311   0.01035   0.00447   0.00871
  63 6   H  1S          0.00924   0.21751  -0.04338  -0.04123   0.04223
  64        2S         -0.00935   0.16878  -0.06217  -0.04101   0.05285
  65 7   H  1S         -0.03840  -0.17015   0.03930   0.00142   0.11627
  66        2S         -0.04193  -0.12586   0.05892  -0.00051   0.13565
  67 8   N  1S         -0.00189  -0.00318   0.00067  -0.01810  -0.04375
  68        2S          0.00855   0.00829  -0.00227   0.04862   0.10427
  69        2PX        -0.14558   0.02428  -0.00334   0.01285   0.09478
  70        2PY         0.01812  -0.19772   0.00906   0.07121   0.14798
  71        2PZ         0.12512   0.09771  -0.01448   0.18683   0.48256
  72        3S         -0.00939   0.00805  -0.00010   0.05377   0.19239
  73        3PX        -0.10226   0.01700  -0.00461  -0.01157   0.08660
  74        3PY         0.01052  -0.15116   0.01722   0.06110   0.14040
  75        3PZ         0.08349   0.06971  -0.01218   0.14056   0.43941
  76        4XX         0.00325  -0.00461   0.00010   0.00625   0.00362
  77        4YY         0.00830   0.01154  -0.00139   0.00431   0.00593
  78        4ZZ        -0.00808  -0.00640   0.00061  -0.00948  -0.01656
  79        4XY         0.00136   0.02169  -0.00197  -0.00303  -0.00316
  80        4XZ         0.01165  -0.00671   0.00081  -0.00084  -0.00829
  81        4YZ        -0.00424   0.00454   0.00115  -0.00445  -0.00862
  82 9   H  1S          0.04421  -0.12090   0.00770   0.00202  -0.05166
  83        2S          0.03079  -0.07969   0.00364  -0.00035  -0.03579
  84 10  H  1S          0.03783   0.12450  -0.00612  -0.01827  -0.05242
  85        2S          0.02554   0.08477  -0.00834  -0.01982  -0.02994
                          21        22        23        24        25
                           V         V         V         V         V
     Eigenvalues --     0.19825   0.21461   0.23473   0.28140   0.29078
   1 1   C  1S          0.00112   0.00289  -0.01611  -0.00220   0.01552
   2        2S         -0.01110   0.04658  -0.00186   0.01149   0.03699
   3        2PX         0.00168   0.00844   0.03597   0.00366   0.02793
   4        2PY        -0.43673  -0.08836  -0.00377  -0.19957   0.05018
   5        2PZ         0.00759  -0.02635  -0.04215  -0.00824  -0.00811
   6        3S          0.05816  -0.40078   0.38116  -0.02868  -0.42081
   7        3PX         0.00990  -0.04757  -0.10336  -0.02301  -0.19949
   8        3PY        -0.56280  -0.10403  -0.00542  -0.42995   0.08284
   9        3PZ         0.00505   0.03040  -0.00017   0.02210   0.12258
  10        4XX         0.00224  -0.00910  -0.01434  -0.00510  -0.00179
  11        4YY        -0.00006   0.00020   0.00377   0.00018  -0.00391
  12        4ZZ        -0.00225   0.01169   0.01086   0.00237   0.01102
  13        4XY         0.01235   0.00183  -0.00006  -0.00534   0.00151
  14        4XZ        -0.00115   0.00456  -0.00558   0.00123   0.00370
  15        4YZ         0.02445   0.00425   0.00016   0.00660  -0.00117
  16 2   O  1S          0.00229  -0.01254   0.01561  -0.00053  -0.00574
  17        2S         -0.00269   0.01794  -0.02192   0.00422   0.00109
  18        2PX         0.00835  -0.04126  -0.07688  -0.00870  -0.01810
  19        2PY         0.31606   0.05505   0.00258   0.12293  -0.02516
  20        2PZ         0.00579  -0.03407  -0.01100  -0.00487  -0.03521
  21        3S         -0.03067   0.15189  -0.19603  -0.00806   0.08434
  22        3PX         0.00604  -0.03197  -0.06705  -0.00298   0.01007
  23        3PY         0.43142   0.07906   0.00363   0.21880  -0.04577
  24        3PZ         0.01704  -0.09735   0.07345  -0.00210  -0.07502
  25        4XX         0.00161  -0.00558   0.00936  -0.00031  -0.00020
  26        4YY         0.00099  -0.00656   0.00893   0.00132  -0.00833
  27        4ZZ        -0.00048   0.00423  -0.00899   0.00082  -0.00171
  28        4XY         0.00414   0.00020   0.00001  -0.00229   0.00091
  29        4XZ        -0.00005  -0.00035   0.00288  -0.00053  -0.00303
  30        4YZ         0.00485   0.00155   0.00006   0.00186  -0.00102
  31 3   O  1S         -0.00208   0.00824   0.08148   0.00207   0.00505
  32        2S          0.00586  -0.02677  -0.08804  -0.00016   0.00660
  33        2PX        -0.00131  -0.00159  -0.17031  -0.00751  -0.08833
  34        2PY         0.16423   0.03061   0.00169   0.11010  -0.02293
  35        2PZ         0.00324  -0.01479  -0.13932  -0.01417  -0.06324
  36        3S          0.00824  -0.00181  -1.07338  -0.02285  -0.03964
  37        3PX         0.00906  -0.06522  -0.41844  -0.02754  -0.25180
  38        3PY         0.23425   0.04277   0.00216   0.14783  -0.02946
  39        3PZ        -0.00069   0.01214  -0.38512  -0.01239  -0.03644
  40        4XX        -0.00175   0.00819   0.03690   0.00486   0.01827
  41        4YY         0.00085  -0.00549   0.04229   0.00121   0.00348
  42        4ZZ         0.00046  -0.00191   0.01949   0.00081   0.00714
  43        4XY         0.01997   0.00402   0.00020   0.01281  -0.00303
  44        4XZ         0.00018  -0.00096  -0.00783  -0.00217  -0.01122
  45        4YZ        -0.00271  -0.00094  -0.00002   0.00147   0.00021
  46 4   H  1S         -0.00499   0.02401   0.09468   0.00281   0.01143
  47        2S         -0.03352   0.16972   1.56757   0.07470   0.50246
  48 5   C  1S          0.00751  -0.04840   0.05986  -0.02115  -0.10234
  49        2S         -0.00479   0.02105  -0.04798   0.01485   0.07636
  50        2PX        -0.01014   0.06566  -0.04477  -0.01703  -0.03619
  51        2PY        -0.07197  -0.01905   0.00119   0.22792  -0.03937
  52        2PZ         0.02543  -0.14971  -0.00435  -0.04206  -0.13690
  53        3S         -0.14897   0.97082  -0.98834   0.40867   1.94623
  54        3PX        -0.06191   0.40587   0.00744  -0.00677  -0.03101
  55        3PY        -0.46998  -0.07481  -0.00172   0.69882  -0.11169
  56        3PZ         0.08205  -0.54588  -0.01656  -0.11042  -0.77149
  57        4XX        -0.00284   0.00826   0.01041   0.00178  -0.00630
  58        4YY         0.00261  -0.01606  -0.00103   0.00080  -0.00543
  59        4ZZ         0.00151  -0.00557  -0.00341  -0.00574  -0.00264
  60        4XY        -0.02123  -0.00275  -0.00017  -0.01608   0.00171
  61        4XZ         0.00067  -0.00485  -0.00724   0.00169   0.00122
  62        4YZ        -0.03315  -0.00593   0.00018  -0.00134   0.00030
  63 6   H  1S          0.09978   0.01205  -0.01506   0.00117  -0.01949
  64        2S          0.77586  -0.61874   0.38466  -1.03405  -1.17814
  65 7   H  1S         -0.09567  -0.02414  -0.01585  -0.00877  -0.01063
  66        2S         -0.53690  -0.88034   0.38139   0.50225  -1.40467
  67 8   N  1S          0.01864  -0.09910  -0.01765   0.01525   0.07207
  68        2S         -0.01384   0.09231   0.01256  -0.01210  -0.05542
  69        2PX         0.02449  -0.09590   0.04602  -0.02057   0.07849
  70        2PY        -0.03374  -0.03646   0.00203   0.21471  -0.01669
  71        2PZ         0.02481  -0.04955  -0.02451  -0.05026   0.08857
  72        3S         -0.30121   1.57852   0.30544  -0.25054  -1.19344
  73        3PX         0.09726  -0.31545   0.15753  -0.09850   0.23424
  74        3PY        -0.03673  -0.12550   0.01107   0.68118  -0.06600
  75        3PZ         0.07654  -0.15746  -0.10105  -0.15896   0.36837
  76        4XX         0.00632  -0.02546  -0.00879   0.00339   0.02529
  77        4YY         0.00586  -0.02879  -0.00371   0.00066   0.01552
  78        4ZZ         0.00601  -0.02973  -0.00166   0.01052   0.02534
  79        4XY        -0.00606   0.00056  -0.00066   0.01144  -0.00078
  80        4XZ        -0.00050   0.00071  -0.00150  -0.00104  -0.00853
  81        4YZ        -0.00430  -0.00228  -0.00013  -0.01040   0.00229
  82 9   H  1S          0.02061  -0.02779  -0.01165  -0.04539   0.01642
  83        2S          0.37024  -0.91038  -0.05189  -0.94339   0.98854
  84 10  H  1S         -0.00449  -0.03171  -0.00789   0.05073   0.00256
  85        2S         -0.00212  -0.98059  -0.01585   1.22720   0.51619
                          26        27        28        29        30
                           V         V         V         V         V
     Eigenvalues --     0.36986   0.40118   0.46531   0.49846   0.55373
   1 1   C  1S         -0.00266  -0.09378  -0.10926  -0.02306   0.04534
   2        2S          0.00718   0.07276   0.10147  -0.18943  -0.11146
   3        2PX        -0.01895  -0.14781   0.00690   0.31678  -0.31388
   4        2PY        -0.10623  -0.00504   0.01182   0.00590   0.01965
   5        2PZ        -0.00838  -0.08752  -0.20139   0.14854   0.17328
   6        3S          0.09844   2.38368   2.37520   1.25767   0.17175
   7        3PX        -0.10847  -0.53694  -0.47631   2.18582  -1.25256
   8        3PY        -0.45773   0.01442   0.01041  -0.01936  -0.01542
   9        3PZ        -0.07570  -0.05964  -0.39595   1.68168   3.21609
  10        4XX         0.00585   0.00598  -0.02643  -0.02273   0.00614
  11        4YY        -0.00062   0.01454   0.01448   0.01350  -0.02347
  12        4ZZ        -0.00007  -0.01142   0.02571  -0.01285   0.02677
  13        4XY        -0.00679   0.00046   0.00078  -0.00055   0.00044
  14        4XZ         0.00037  -0.00414   0.01514  -0.00839  -0.00408
  15        4YZ        -0.00036   0.00024   0.00038  -0.00050  -0.00066
  16 2   O  1S         -0.00100   0.04773   0.01807   0.08240   0.08315
  17        2S         -0.00443  -0.05868  -0.01440  -0.04337  -0.01188
  18        2PX         0.00874   0.06064   0.01200  -0.14210   0.11774
  19        2PY         0.07066  -0.00163  -0.00186   0.00214   0.00320
  20        2PZ         0.00367   0.11517   0.04709   0.06784  -0.01964
  21        3S          0.04090  -0.77546  -0.38881  -1.87049  -2.42365
  22        3PX         0.02698   0.15098   0.04138  -0.54242   0.33988
  23        3PY         0.17007  -0.00330  -0.00613   0.00384  -0.00101
  24        3PZ        -0.00967   0.43545   0.23895   0.75268   0.78046
  25        4XX        -0.00065   0.01562   0.00307   0.04068   0.06522
  26        4YY        -0.00307   0.02892   0.02043   0.06566   0.05161
  27        4ZZ        -0.00125  -0.01354  -0.01280  -0.01129  -0.01759
  28        4XY        -0.00322  -0.00025   0.00050   0.00002   0.00072
  29        4XZ        -0.00035   0.00406  -0.00667   0.00705   0.01067
  30        4YZ        -0.00068   0.00047  -0.00064  -0.00061  -0.00137
  31 3   O  1S         -0.00112   0.00632   0.03849   0.04578  -0.07081
  32        2S          0.00007   0.03791  -0.13762  -0.04330   0.04642
  33        2PX        -0.00126   0.02469   0.24728   0.14985  -0.12450
  34        2PY         0.09473  -0.00213  -0.00417   0.00275  -0.00166
  35        2PZ         0.00310  -0.08156  -0.00743  -0.09714   0.04757
  36        3S          0.01986  -0.26986  -0.27455  -0.88737   1.63328
  37        3PX         0.00020   0.14147   0.56435   0.47147  -0.89609
  38        3PY         0.12248  -0.00337  -0.00309   0.00372   0.00322
  39        3PZ         0.01808  -0.14505  -0.05790  -0.61728   0.15313
  40        4XX        -0.00122   0.01255   0.00211  -0.02085  -0.03181
  41        4YY        -0.00130   0.02809  -0.01840   0.04524  -0.03149
  42        4ZZ        -0.00016   0.00057  -0.03024   0.00302  -0.02320
  43        4XY         0.00942   0.00001  -0.00087  -0.00007  -0.00100
  44        4XZ         0.00038  -0.01191   0.01184   0.00389   0.01186
  45        4YZ         0.00327  -0.00043   0.00028   0.00039   0.00071
  46 4   H  1S         -0.00107  -0.06080   0.02035  -0.07363   0.02358
  47        2S          0.00756   0.06380  -0.43877  -0.50616   0.13358
  48 5   C  1S          0.00743   0.00733   0.10678  -0.05776   0.02790
  49        2S          0.00595  -0.01216  -0.08679  -0.03692  -0.07829
  50        2PX         0.00439  -0.25297   0.08106  -0.06085   0.09229
  51        2PY         0.29166  -0.02010  -0.01090   0.01689   0.02095
  52        2PZ         0.01874  -0.07947  -0.23171  -0.10575   0.02592
  53        3S         -0.19047   0.01762  -2.08464   2.00719  -0.11309
  54        3PX        -0.09492  -1.87406   0.19024   1.03090   1.67190
  55        3PY         1.40695  -0.04043  -0.04669   0.05298  -0.00537
  56        3PZ        -0.12776  -0.33651  -1.73261   0.92240  -1.28226
  57        4XX        -0.00052  -0.01029   0.02736  -0.01589  -0.03220
  58        4YY        -0.00333   0.00203  -0.03873   0.02164  -0.02473
  59        4ZZ         0.00671   0.00899  -0.00205  -0.02450   0.03622
  60        4XY        -0.00277   0.00019  -0.00256   0.00225   0.00270
  61        4XZ         0.00074   0.03505  -0.00390  -0.01718   0.01149
  62        4YZ        -0.00848   0.00081   0.00228  -0.00221  -0.00317
  63 6   H  1S          0.00089  -0.01041  -0.09963   0.05197  -0.02372
  64        2S         -1.37931  -0.02423  -0.27777  -0.22625  -0.30480
  65 7   H  1S         -0.01224  -0.00580  -0.08863   0.04306  -0.05029
  66        2S          1.41594  -0.13619  -0.37062  -0.10591  -0.28200
  67 8   N  1S         -0.00219   0.02807  -0.05013   0.00857  -0.02303
  68        2S         -0.00169  -0.03061   0.06498  -0.01671  -0.09199
  69        2PX         0.03346  -0.20940   0.25765  -0.01445  -0.02065
  70        2PY        -0.23012  -0.00050   0.03483  -0.03505   0.00734
  71        2PZ         0.05620   0.12456  -0.02646  -0.05922  -0.10883
  72        3S          0.05578  -0.61448   0.84205  -0.10392   1.31184
  73        3PX         0.12798  -0.81011   1.18844  -0.16423   0.73158
  74        3PY        -0.98156  -0.01800   0.07867  -0.06938  -0.00579
  75        3PZ         0.20380   0.50473  -0.18945  -0.08388  -0.45265
  76        4XX        -0.00128  -0.00430  -0.02890   0.00271   0.00391
  77        4YY         0.00516  -0.00508  -0.00292   0.00205  -0.03369
  78        4ZZ        -0.00608   0.01405   0.01604  -0.00572  -0.02495
  79        4XY         0.01889   0.00570  -0.00105  -0.00284  -0.00536
  80        4XZ        -0.00182   0.00544  -0.00505  -0.00331   0.02499
  81        4YZ         0.00874   0.00250  -0.00206  -0.00026  -0.00353
  82 9   H  1S         -0.01519  -0.05233  -0.02886   0.03536   0.07853
  83        2S          1.11751  -0.46148   0.40697   0.10801   0.00996
  84 10  H  1S          0.01055  -0.03148  -0.00614   0.00477  -0.02654
  85        2S         -1.15835  -0.40656   0.46448  -0.07464   0.17719
                          31        32        33        34        35
                           V         V         V         V         V
     Eigenvalues --     0.74028   0.77815   0.79451   0.84381   0.86199
   1 1   C  1S          0.00571  -0.00982  -0.00916   0.04309   0.02914
   2        2S         -0.04475  -0.29914  -0.26974  -0.22216  -0.40199
   3        2PX        -0.12381  -0.68968  -0.24256  -0.29275  -0.33578
   4        2PY        -0.84535   0.13052   0.11782   0.40729  -0.36941
   5        2PZ         0.02701   0.08169   0.07151   0.09276   0.12257
   6        3S         -0.02731   0.06800   0.11009   0.85375   1.20044
   7        3PX         0.24987   1.27101   0.58887   1.06657   1.06926
   8        3PY         0.88482  -0.17100  -0.16146  -0.80485   0.84633
   9        3PZ         0.17386  -0.11833  -1.23789   0.18034  -0.42601
  10        4XX        -0.00346  -0.05217  -0.05040   0.06078   0.03160
  11        4YY        -0.00224   0.00739   0.00618  -0.05660  -0.05528
  12        4ZZ         0.00386  -0.03061  -0.02932   0.05378   0.02883
  13        4XY        -0.02620   0.00319   0.00074  -0.00768   0.01681
  14        4XZ        -0.01052  -0.09765  -0.05853   0.03087   0.00694
  15        4YZ         0.00244   0.00077   0.00053   0.00504  -0.00304
  16 2   O  1S          0.00417  -0.00194  -0.01509   0.00541  -0.00263
  17        2S         -0.00304   0.05370  -0.03409   0.04744   0.07384
  18        2PX        -0.00554   0.02211   0.09656  -0.17201  -0.12571
  19        2PY        -0.05791   0.01035   0.00708   0.06046  -0.06875
  20        2PZ        -0.00862  -0.02029   0.02972  -0.06587  -0.05176
  21        3S         -0.12752  -0.05099   0.77381  -0.43288  -0.16482
  22        3PX        -0.02322  -0.11328  -0.03649  -0.18159  -0.17363
  23        3PY        -0.05491   0.01674   0.01920   0.10580  -0.11750
  24        3PZ         0.05109  -0.00516  -0.22115   0.20116   0.09701
  25        4XX         0.00153   0.00137  -0.00813   0.01725   0.01914
  26        4YY         0.00399   0.02889  -0.01504   0.02332   0.03017
  27        4ZZ        -0.00438   0.02131  -0.00187  -0.02258  -0.00681
  28        4XY        -0.01091   0.00003  -0.00114  -0.01326   0.01829
  29        4XZ         0.01208   0.06831   0.04661   0.00850   0.01841
  30        4YZ         0.06771  -0.01063  -0.00964  -0.03266   0.02889
  31 3   O  1S         -0.00350   0.00177   0.00072  -0.00670  -0.00300
  32        2S          0.02640   0.01203   0.19137   0.09545   0.08998
  33        2PX        -0.01841  -0.06113  -0.12211  -0.04760  -0.07110
  34        2PY        -0.05001   0.01523   0.01844   0.10549  -0.12376
  35        2PZ         0.01453   0.14732  -0.00074   0.00480   0.03381
  36        3S         -0.05069  -0.46722  -0.81440  -0.52110  -0.73012
  37        3PX        -0.04508   0.01187   0.17620   0.05576   0.16948
  38        3PY        -0.10277   0.01604   0.01256   0.05174  -0.04536
  39        3PZ        -0.02362  -0.10665   0.03320  -0.16580  -0.14518
  40        4XX        -0.00569  -0.04672   0.02703  -0.06033  -0.06981
  41        4YY         0.01168   0.03924   0.09225   0.05532   0.06934
  42        4ZZ         0.00358  -0.02598   0.03658   0.03430   0.02290
  43        4XY         0.03973  -0.00641  -0.00544  -0.02247   0.02109
  44        4XZ         0.01493   0.10959   0.01894   0.03190   0.04682
  45        4YZ        -0.03203   0.00387   0.00317  -0.00029   0.00601
  46 4   H  1S          0.02082   0.22347  -0.01548  -0.08895  -0.06562
  47        2S         -0.05111  -0.42575   0.01740  -0.13389  -0.17229
  48 5   C  1S          0.00013   0.00551   0.01967  -0.01833  -0.01071
  49        2S         -0.03616  -0.05274  -0.38562   0.14068   0.07307
  50        2PX         0.00373  -0.68651   0.34362   0.47032   0.40394
  51        2PY        -0.27129  -0.00430  -0.00293  -0.28971   0.36635
  52        2PZ        -0.04363  -0.15965  -0.80796   0.33609   0.15369
  53        3S          0.20949   0.69776   0.08562   0.38585   0.19528
  54        3PX         0.13154   0.77139  -0.95007  -0.59401  -0.85086
  55        3PY         0.41198   0.01661   0.00605   0.74448  -1.01846
  56        3PZ         0.11160   0.47906   1.53511  -0.32714  -0.08372
  57        4XX         0.00634   0.03924  -0.04293   0.02030   0.00446
  58        4YY        -0.00514  -0.02647   0.03214  -0.01561  -0.00979
  59        4ZZ        -0.00253   0.00668  -0.05488   0.01549   0.01293
  60        4XY        -0.03150  -0.00121  -0.00410  -0.03895   0.03598
  61        4XZ         0.00341   0.02454  -0.00322   0.01813   0.00581
  62        4YZ         0.06216  -0.00061   0.00406   0.06267  -0.07536
  63 6   H  1S         -0.26394  -0.04142   0.17139  -0.31530   0.19211
  64        2S         -0.04609   0.03294   0.21727  -0.06048   0.06142
  65 7   H  1S          0.24646  -0.05200   0.20021   0.09445  -0.33529
  66        2S          0.04372   0.01311   0.16768  -0.04038  -0.13257
  67 8   N  1S          0.00043   0.00990  -0.01932  -0.00682  -0.01379
  68        2S         -0.01791   0.01702   0.11560   0.07213   0.10673
  69        2PX         0.02766   0.09737   0.00043   0.00848   0.05827
  70        2PY        -0.11246   0.00124  -0.03994  -0.00501   0.13558
  71        2PZ        -0.02220   0.00754   0.04506   0.12421   0.23329
  72        3S          0.00089  -0.04100  -0.79445  -0.25448  -0.38030
  73        3PX        -0.00700  -0.30801   0.09383   0.04968  -0.02425
  74        3PY         0.20126   0.01203   0.08644   0.14468  -0.13278
  75        3PZ        -0.06657   0.07254  -0.13975  -0.01243   0.03337
  76        4XX        -0.02142   0.03138  -0.11849  -0.02018  -0.00217
  77        4YY         0.01105  -0.01748   0.08976   0.04212   0.00983
  78        4ZZ        -0.00941   0.02302   0.02193   0.00210   0.03013
  79        4XY         0.05057   0.00450  -0.00419   0.05868  -0.05532
  80        4XZ        -0.00805  -0.07773   0.05510  -0.00540   0.02276
  81        4YZ         0.01491   0.00170  -0.00629  -0.00356   0.00812
  82 9   H  1S         -0.18250  -0.11371   0.06855  -0.23236   0.14097
  83        2S          0.07384   0.14934  -0.01328   0.01859  -0.03836
  84 10  H  1S          0.22075  -0.03692   0.16056   0.26387  -0.24530
  85        2S         -0.01493   0.04502  -0.10769  -0.03110   0.02074
                          36        37        38        39        40
                           V         V         V         V         V
     Eigenvalues --     0.95217   0.96776   1.00628   1.06123   1.07791
   1 1   C  1S          0.04521  -0.00441   0.00614  -0.01784   0.00301
   2        2S         -0.47707  -1.05756  -0.36391  -0.18145  -0.20618
   3        2PX        -0.01368   0.30569   0.11514   0.27146  -0.07949
   4        2PY         0.00673   0.01126  -0.00952   0.00003  -0.03517
   5        2PZ        -0.67923   0.40472  -0.49622   0.35641  -0.30472
   6        3S         -0.31671   2.86540  -0.09201   0.81362   0.16720
   7        3PX         0.66818  -1.05130  -0.01979  -0.93154   0.00797
   8        3PY         0.01329  -0.08322  -0.01683  -0.18924  -0.25657
   9        3PZ         0.75880  -1.69675   0.78607  -0.07647   0.12147
  10        4XX        -0.15632   0.01310  -0.07147  -0.16699   0.05479
  11        4YY        -0.06869  -0.06431  -0.01984   0.01569  -0.00989
  12        4ZZ         0.15263  -0.07787   0.02102   0.06720  -0.06479
  13        4XY         0.00201  -0.00598  -0.00599  -0.00449  -0.00270
  14        4XZ         0.05158  -0.00332   0.00050   0.03546  -0.05013
  15        4YZ         0.00078  -0.00173  -0.00230   0.00060   0.00132
  16 2   O  1S         -0.04144  -0.00842  -0.02035   0.01813  -0.00995
  17        2S          0.09233   0.07321   0.14817  -0.10960   0.20133
  18        2PX         0.02048   0.25289  -0.03508  -0.02902  -0.01151
  19        2PY        -0.00595   0.01221   0.01290   0.02984   0.01586
  20        2PZ        -0.26232  -0.00184  -0.06299  -0.13511   0.10151
  21        3S         -0.05134   0.22011  -0.34655  -0.24047  -0.23695
  22        3PX        -0.18700  -0.05099   0.02069   0.20420   0.04819
  23        3PY        -0.00052   0.01062  -0.00275   0.01193   0.03741
  24        3PZ        -0.35334  -0.00897  -0.35925   0.57055  -0.43070
  25        4XX         0.05215   0.01461   0.05836  -0.06720   0.07750
  26        4YY         0.04437   0.02632   0.07704  -0.01116   0.08398
  27        4ZZ        -0.16566   0.03100  -0.04489  -0.03281   0.04229
  28        4XY         0.00002  -0.00402   0.00017  -0.01575  -0.02853
  29        4XZ        -0.00333  -0.01808  -0.01415  -0.02965   0.02161
  30        4YZ        -0.00096  -0.00016   0.00216   0.00008   0.00184
  31 3   O  1S          0.00521  -0.00114   0.01353   0.01289  -0.01220
  32        2S          0.03590  -0.22926  -0.11458   0.08589   0.03957
  33        2PX         0.10569  -0.11294   0.06365   0.02095  -0.01748
  34        2PY         0.00602   0.01988  -0.01044   0.09698   0.17901
  35        2PZ        -0.14455   0.29476  -0.07331  -0.33398   0.26281
  36        3S         -0.06161  -0.09104   0.27737  -0.03366  -0.02149
  37        3PX        -0.26532   0.39760  -0.10486  -0.38621   0.28959
  38        3PY        -0.00782  -0.00258   0.01434  -0.06644  -0.14279
  39        3PZ        -0.03208  -0.10970  -0.03871   0.32634  -0.18068
  40        4XX         0.10047  -0.15530   0.04685   0.12402  -0.04741
  41        4YY        -0.00763  -0.03156  -0.05712  -0.00251   0.04437
  42        4ZZ        -0.00555  -0.09064  -0.02442   0.05860  -0.03265
  43        4XY         0.00073  -0.00131  -0.00060  -0.00479  -0.00640
  44        4XZ         0.02912   0.05150   0.03172   0.05604  -0.05820
  45        4YZ         0.00212  -0.00377  -0.00377  -0.00993  -0.01352
  46 4   H  1S          0.21588   0.01488   0.25603   0.51459  -0.45218
  47        2S         -0.24558  -0.04137  -0.27029  -0.11604   0.22943
  48 5   C  1S         -0.00509  -0.03966  -0.04021  -0.00778   0.02432
  49        2S         -0.17452   0.04362   0.02509  -0.18188   0.04813
  50        2PX         0.17268   0.07981  -0.28600   0.09392  -0.04000
  51        2PY         0.00136  -0.07270   0.02557  -0.43382  -0.78940
  52        2PZ        -0.08830   0.09142   0.06006  -0.00759  -0.02144
  53        3S          1.32659  -1.37101  -0.22670   0.09969  -0.23704
  54        3PX        -0.43358  -0.98288   0.95140  -0.36404   0.12059
  55        3PY        -0.05247   0.24003   0.04209   1.04874   1.85278
  56        3PZ         0.62495  -1.19722  -0.31639   0.04634  -0.04114
  57        4XX         0.13986  -0.08002  -0.10908  -0.00269  -0.01135
  58        4YY        -0.03317   0.01317   0.02932   0.01439  -0.00810
  59        4ZZ        -0.08515  -0.02879  -0.00635  -0.05775   0.05615
  60        4XY         0.01362   0.00438  -0.01527   0.02675   0.05165
  61        4XZ        -0.01066  -0.03555   0.08254  -0.07856  -0.01321
  62        4YZ        -0.01361   0.00686   0.02098  -0.02508  -0.07631
  63 6   H  1S         -0.05904  -0.24591  -0.14333   0.08439   0.34523
  64        2S          0.17794  -0.43369  -0.04424  -0.64217  -1.13916
  65 7   H  1S         -0.13869  -0.18968  -0.01066  -0.13066  -0.14865
  66        2S          0.23170  -0.27339  -0.15410   0.51267   1.11688
  67 8   N  1S         -0.00540  -0.00028   0.02188  -0.01581  -0.00517
  68        2S         -0.04360  -0.32057  -0.17969   0.09531   0.05627
  69        2PX         0.03649  -0.29203  -0.35103   0.24262   0.15503
  70        2PY        -0.12265  -0.04367   0.12616   0.09120   0.05879
  71        2PZ        -0.42983  -0.14991   0.63307   0.31216   0.07054
  72        3S         -0.33302   0.61575   0.55971  -0.08579   0.07163
  73        3PX        -0.63446   0.41013   0.89491  -0.80046  -0.09175
  74        3PY         0.08283  -0.06547  -0.12189  -0.42995  -0.64436
  75        3PZ         0.60709   0.29108  -0.83574  -0.39600  -0.06841
  76        4XX        -0.07973  -0.04994   0.04420   0.05623   0.05437
  77        4YY        -0.03977  -0.09663   0.02233  -0.04744  -0.03760
  78        4ZZ         0.02544  -0.04012  -0.05654   0.04557   0.01628
  79        4XY        -0.00718  -0.00070   0.00497  -0.01578  -0.08804
  80        4XZ         0.01213   0.02128  -0.00582   0.04295   0.03433
  81        4YZ         0.02520   0.00128  -0.03925   0.03869   0.00612
  82 9   H  1S         -0.16773   0.01816   0.27538  -0.16962   0.24528
  83        2S         -0.12150  -0.07067   0.05281  -0.22040  -0.09305
  84 10  H  1S         -0.19175  -0.07381   0.26548  -0.37377  -0.29653
  85        2S         -0.12899  -0.03578   0.02656  -0.07104   0.10210
                          41        42        43        44        45
                           V         V         V         V         V
     Eigenvalues --     1.10763   1.11495   1.16726   1.18756   1.21762
   1 1   C  1S         -0.05493   0.05493   0.01650   0.01718   0.00382
   2        2S          0.13626   0.57507   0.22067  -0.16348   0.06569
   3        2PX        -0.18994  -0.08346  -0.18884   0.02177  -0.03104
   4        2PY        -0.01767  -0.01513  -0.04449   0.01349   0.01304
   5        2PZ         0.11585   0.06092   0.03827  -0.07943  -0.02050
   6        3S         -0.91895  -0.72114   0.30316   1.14664  -0.22606
   7        3PX         0.70296   0.72438   0.78721   0.34227   0.27839
   8        3PY         0.02642   0.09521  -0.21539   0.05091  -0.34601
   9        3PZ        -0.36432   0.17552  -0.59121  -0.23125  -0.04415
  10        4XX         0.03780   0.03768   0.00635  -0.02367   0.02187
  11        4YY         0.07070  -0.05922  -0.03428  -0.02555  -0.00687
  12        4ZZ        -0.19766   0.22210   0.12465   0.12283   0.00706
  13        4XY         0.02487   0.05071  -0.10721   0.03158   0.00803
  14        4XZ         0.07006   0.00673   0.01372  -0.09481   0.00686
  15        4YZ         0.01026   0.02223  -0.04504   0.01116   0.06215
  16 2   O  1S          0.00521  -0.00752  -0.00974  -0.00889  -0.00358
  17        2S          0.05052  -0.30157  -0.10468  -0.02291  -0.05297
  18        2PX        -0.01451   0.02546   0.05992   0.03122   0.07119
  19        2PY        -0.08028  -0.14303   0.28307  -0.10033   0.31836
  20        2PZ         0.42450  -0.39496  -0.20998  -0.29119  -0.00372
  21        3S          0.36814   0.46967   0.42283  -0.05585   0.18860
  22        3PX        -0.21109  -0.16857  -0.25303  -0.05819  -0.13675
  23        3PY         0.05869   0.09218  -0.19825   0.08212  -0.29520
  24        3PZ        -0.62947   0.69833   0.35045   0.40940  -0.03263
  25        4XX         0.04109  -0.10855  -0.04487  -0.03681  -0.00784
  26        4YY        -0.01916  -0.14171  -0.07027   0.01243  -0.02797
  27        4ZZ         0.18090  -0.18775  -0.07854  -0.10649  -0.01938
  28        4XY        -0.00621  -0.00303  -0.02439   0.00661   0.01917
  29        4XZ        -0.02342   0.00861  -0.00096   0.02164  -0.00328
  30        4YZ        -0.00388  -0.00891   0.01958  -0.00502  -0.01534
  31 3   O  1S          0.00949   0.00240   0.00748   0.01461   0.00015
  32        2S         -0.17690  -0.08302  -0.08177  -0.11125  -0.07359
  33        2PX         0.01945  -0.00332  -0.07846  -0.19043  -0.05090
  34        2PY         0.07007   0.08225   0.02157   0.00330  -0.67605
  35        2PZ        -0.44372   0.15394  -0.07652   0.15312  -0.01739
  36        3S          0.12156   0.04032  -0.29930  -0.23678   0.07428
  37        3PX        -0.26742   0.04889   0.23423   0.56889   0.06527
  38        3PY        -0.08627  -0.11830   0.03995  -0.02078   0.86124
  39        3PZ         0.35361  -0.26546  -0.01678  -0.29482  -0.02289
  40        4XX        -0.04746  -0.01989  -0.02871   0.00387  -0.02481
  41        4YY        -0.06014  -0.05287  -0.00416  -0.01843  -0.02691
  42        4ZZ         0.04056  -0.04158  -0.04594  -0.09333  -0.01811
  43        4XY         0.00030   0.00134  -0.00452   0.00071   0.03865
  44        4XZ         0.04733   0.02548   0.04316   0.04830   0.00893
  45        4YZ         0.01159   0.02533  -0.05949   0.01800  -0.02107
  46 4   H  1S          0.37867   0.07776   0.12329   0.10027   0.05818
  47        2S         -0.36203  -0.14445  -0.29765  -0.36268  -0.12215
  48 5   C  1S         -0.01105  -0.02361   0.01263   0.01996   0.00400
  49        2S         -0.33477   0.38699   0.17848  -0.91442   0.04010
  50        2PX         0.03015  -0.03515   0.02787  -0.03210   0.01273
  51        2PY        -0.28486  -0.35257   0.01699   0.00465  -0.32629
  52        2PZ         0.22396  -0.19131   0.01809   0.52639  -0.02739
  53        3S          1.08814  -0.56531  -0.23894   2.11631   0.01692
  54        3PX        -0.05068   0.26985  -0.62891  -0.47011  -0.01506
  55        3PY         0.37058   0.25408   0.86974  -0.24256   1.06558
  56        3PZ        -0.31799   0.48821   0.15100  -0.64275   0.17519
  57        4XX        -0.06171   0.05884   0.02229  -0.13097   0.01229
  58        4YY        -0.01529   0.01250   0.01127   0.05747   0.00656
  59        4ZZ         0.01776  -0.03450   0.00828  -0.06546  -0.00591
  60        4XY         0.01294   0.00460   0.08024  -0.03061  -0.02573
  61        4XZ         0.05320   0.08108   0.02296  -0.05287   0.01536
  62        4YZ        -0.08071  -0.12436   0.11477  -0.03238  -0.04780
  63 6   H  1S          0.30255   0.16744  -0.29786   0.60169   0.17120
  64        2S         -0.80844  -0.07249   0.08139  -1.00626  -0.66511
  65 7   H  1S         -0.14871  -0.55897   0.44582   0.41196  -0.10631
[...]
         Item               Value     Threshold  Converged?
 Maximum Force            0.000046     0.000450     YES
 RMS     Force            0.000015     0.000300     YES
 Maximum Displacement     0.000761     0.001800     YES
 RMS     Displacement     0.000274     0.001200     YES
 Predicted change in Energy=-1.496518D-08
 Optimization completed.
    -- Stationary point found.
                           ----------------------------
                           !   Optimized Parameters   !
                           ! (Angstroms and Degrees)  !
 --------------------------                            --------------------------
 ! Name  Definition              Value          Derivative Info.                !
 --------------------------------------------------------------------------------
 ! R1    R(1,2)                  1.1869         -DE/DX =    0.0                 !
 ! R2    R(1,3)                  1.3286         -DE/DX =    0.0                 !
 ! R3    R(1,5)                  1.5083         -DE/DX =    0.0                 !
 ! R4    R(3,4)                  0.9524         -DE/DX =    0.0                 !
 ! R5    R(5,6)                  1.0827         -DE/DX =    0.0                 !
 ! R6    R(5,7)                  1.0929         -DE/DX =    0.0                 !
 ! R7    R(5,8)                  1.443          -DE/DX =    0.0                 !
 ! R8    R(8,9)                  1.0001         -DE/DX =    0.0                 !
 ! R9    R(8,10)                 1.0006         -DE/DX =    0.0                 !
 ! A1    A(2,1,3)              122.8861         -DE/DX =    0.0                 !
 ! A2    A(2,1,5)              125.1578         -DE/DX =    0.0                 !
 ! A3    A(3,1,5)              111.8991         -DE/DX =    0.0                 !
 ! A4    A(1,3,4)              108.268          -DE/DX =    0.0                 !
 ! A5    A(1,5,6)              108.6126         -DE/DX =    0.0                 !
 ! A6    A(1,5,7)              105.7393         -DE/DX =    0.0                 !
 ! A7    A(1,5,8)              110.211          -DE/DX =    0.0                 !
 ! A8    A(6,5,7)              106.7119         -DE/DX =    0.0                 !
 ! A9    A(6,5,8)              110.271          -DE/DX =    0.0                 !
 ! A10   A(7,5,8)              115.0157         -DE/DX =    0.0                 !
 ! A11   A(5,8,9)              111.0237         -DE/DX =    0.0                 !
 ! A12   A(5,8,10)             110.6903         -DE/DX =    0.0                 !
 ! A13   A(9,8,10)             108.5731         -DE/DX =    0.0                 !
 ! D1    D(2,1,3,4)              0.2399         -DE/DX =    0.0                 !
 ! D2    D(5,1,3,4)           -177.1409         -DE/DX =    0.0                 !
 ! D3    D(2,1,5,6)            142.7023         -DE/DX =    0.0                 !
 ! D4    D(2,1,5,7)           -103.0827         -DE/DX =    0.0                 !
 ! D5    D(2,1,5,8)             21.8015         -DE/DX =    0.0                 !
 ! D6    D(3,1,5,6)            -39.988          -DE/DX =    0.0                 !
 ! D7    D(3,1,5,7)             74.2271         -DE/DX =    0.0                 !
 ! D8    D(3,1,5,8)           -160.8887         -DE/DX =    0.0                 !
 ! D9    D(1,5,8,9)           -166.738          -DE/DX =    0.0                 !
 ! D10   D(1,5,8,10)           -46.0802         -DE/DX =    0.0                 !
 ! D11   D(6,5,8,9)             73.3589         -DE/DX =    0.0                 !
 ! D12   D(6,5,8,10)          -165.9832         -DE/DX =    0.0                 !
 ! D13   D(7,5,8,9)            -47.3465         -DE/DX =    0.0                 !
 ! D14   D(7,5,8,10)            73.3113         -DE/DX =    0.0                 !
 --------------------------------------------------------------------------------
 GradGradGradGradGradGradGradGradGradGradGradGradGradGradGradGradGradGrad


 ----------------------------------------------------------------------

 Electric dipole moment (input orientation):
 (Debye = 10**-18 statcoulomb cm , SI units = C m)
                  (au)            (Debye)         (10**-30 SI)
   Tot        0.905875D+00      0.230251D+01      0.768033D+01
   x          0.931070D-01      0.236654D+00      0.789394D+00
   y         -0.355446D+00     -0.903454D+00     -0.301360D+01
   z         -0.828009D+00     -0.210459D+01     -0.702016D+01

 Dipole polarizability, Alpha (input orientation).
 (esu units = cm**3 , SI units = C**2 m**2 J**-1)
 Alpha(0;0):
               (au)            (10**-24 esu)      (10**-40 SI)
   iso        0.299581D+02      0.443934D+01      0.493943D+01
   aniso      0.128774D+02      0.190824D+01      0.212320D+01
   xx         0.348380D+02      0.516246D+01      0.574401D+01
   yx         0.431438D+00      0.639326D-01      0.711346D-01
   yy         0.224761D+02      0.333061D+01      0.370581D+01
   zx        -0.725516D-01     -0.107510D-01     -0.119621D-01
   zy        -0.343543D+01     -0.509079D+00     -0.566427D+00
   zz         0.325603D+02      0.482494D+01      0.536847D+01

 First dipole hyperpolarizability, Beta (input orientation).
 ||, _|_  parallel and perpendicular components, (z) with respect to z axis,
 vector components x,y,z.  Values do not include the 1/n! factor of 1/2.
 (esu units = statvolt**-1 cm**4 , SI units = C**3 m**3 J**-2)
 Beta(0;0,0):
               (au)            (10**-30 esu)      (10**-50 SI)
   || (z)    -0.366060D+02     -0.316248D+00     -0.117372D+00
   _|_(z)    -0.122020D+02     -0.105416D+00     -0.391240D-01
   x          0.319034D+02      0.275621D+00      0.102294D+00
   y         -0.632993D+02     -0.546857D+00     -0.202961D+00
   z         -0.183030D+03     -0.158124D+01     -0.586861D+00
   ||         0.392554D+02      0.339136D+00      0.125867D+00
   xxx        0.637410D+01      0.550673D-01      0.204377D-01
   xxy       -0.925141D+01     -0.799250D-01     -0.296634D-01
   yxy        0.409773D+01      0.354012D-01      0.131388D-01
   yyy       -0.227896D+01     -0.196885D-01     -0.730718D-02
   xxz       -0.179241D+01     -0.154850D-01     -0.574711D-02
   yxz        0.624143D+01      0.539211D-01      0.200123D-01
   yyz       -0.238059D+02     -0.205664D+00     -0.763302D-01
   zxz        0.162646D+00      0.140514D-02      0.521502D-03
   zyz       -0.956940D+01     -0.826721D-01     -0.306829D-01
   zzz       -0.354118D+02     -0.305930D+00     -0.113543D+00

 ----------------------------------------------------------------------

 Dipole orientation:
     6         -0.11498804          0.12036819          0.16689656
     8         -0.09678250          1.60817322         -1.51153264
     8          1.98207845         -0.81326124          1.18380618
     1          3.39297871         -0.07862443          0.34167024
     6         -2.45388790         -0.84545771          1.47875725
     1         -2.18791980         -2.82720488          1.91281856
     1         -2.53550051          0.15241790          3.28514629
     7         -4.63662766         -0.51351106         -0.12159372
     1         -6.23631822         -0.76135430          0.85361493
     1         -4.65400323          1.21992442         -0.87664922

 Electric dipole moment (dipole orientation):
 (Debye = 10**-18 statcoulomb cm , SI units = C m)
                  (au)            (Debye)         (10**-30 SI)
   Tot        0.905875D+00      0.230251D+01      0.768033D+01
   x          0.000000D+00      0.000000D+00      0.000000D+00
   y          0.000000D+00      0.000000D+00      0.000000D+00
   z          0.905875D+00      0.230251D+01      0.768033D+01

 Dipole polarizability, Alpha (dipole orientation).
 (esu units = cm**3 , SI units = C**2 m**2 J**-1)
 Alpha(0;0):
               (au)            (10**-24 esu)      (10**-40 SI)
   iso        0.299581D+02      0.443934D+01      0.493943D+01
   aniso      0.128774D+02      0.190824D+01      0.212320D+01
   xx         0.347968D+02      0.515635D+01      0.573722D+01
   yx         0.210622D-01      0.312109D-02      0.347269D-02
   yy         0.265312D+02      0.393152D+01      0.437440D+01
   zx         0.418656D+00      0.620384D-01      0.690270D-01
   zy        -0.604364D+01     -0.895575D+00     -0.996462D+00
   zz         0.285464D+02      0.423014D+01      0.470666D+01

 First dipole hyperpolarizability, Beta (dipole orientation).
 ||, _|_  parallel and perpendicular components, (z) with respect to z axis,
 vector components x,y,z.  Values do not include the 1/n! factor of 1/2.
 (esu units = statvolt**-1 cm**4 , SI units = C**3 m**3 J**-2)
 Beta(0;0,0):
               (au)            (10**-30 esu)      (10**-50 SI)
   || (z)     0.390828D+02      0.337645D+00      0.125313D+00
   _|_(z)     0.130276D+02      0.112548D+00      0.417712D-01
   x          0.115816D+02      0.100056D+00      0.371347D-01
   y         -0.142816D+02     -0.123382D+00     -0.457920D-01
   z          0.195414D+03      0.168822D+01      0.626567D+00
   ||         0.392554D+02      0.339136D+00      0.125867D+00
   xxx        0.518729D+01      0.448141D-01      0.166323D-01
   xxy        0.640645D+01      0.553467D-01      0.205414D-01
   yxy       -0.293630D+01     -0.253673D-01     -0.941483D-02
   yyy       -0.199242D+02     -0.172130D+00     -0.638843D-01
   xxz        0.541646D+01      0.467940D-01      0.173671D-01
   yxz        0.575212D+01      0.496939D-01      0.184434D-01
   yyz        0.112889D+02      0.975273D-01      0.361963D-01
   zxz        0.160953D+01      0.139051D-01      0.516073D-02
   zyz        0.875725D+01      0.756558D-01      0.280789D-01
   zzz        0.484326D+02      0.418420D+00      0.155292D+00

 ----------------------------------------------------------------------
 1\1\GINC-Q33\Freq\UHF\6-31G(d)\C2H5N1O2\GRACE\06-Mar-2020\0\\#N Geom=A
 llCheck Guess=TCheck SCRF=Check GenChk UHF/6-31G(d) Freq\\C1, Pilling 
 2011.\\0,1\C,-0.0527778809,-0.0945086717,-0.0619874998\O,-0.1510747906
 ,-0.4697834236,1.0597680972\O,1.1165361684,0.1720392423,-0.6336557533\
 H,1.8050372841,0.0051470596,0.0029542133\C,-1.2015190766,0.0770031293,
 -1.0242760581\H,-1.0158470819,0.9541820767,-1.6312472573\H,-1.15734581
 47,-0.7845591919,-1.6952521384\N,-2.4409436595,0.2234301992,-0.2999943
 485\H,-3.2269868188,0.1237071288,-0.9101618452\H,-2.510482273,-0.46349
 51362,0.4242007431\\Version=ES64L-G16RevA.03\HF=-282.8278054\S2=0.\S2-
 1=0.\S2A=0.\RMSD=7.419e-10\RMSF=1.326e-05\ZeroPoint=0.0865887\Thermal=
 0.091895\Dipole=0.093107,-0.355446,-0.8280093\DipoleDeriv=1.7300862,0.
 1790545,-0.160365,0.1905272,0.5646893,-0.3757844,-0.2589104,-0.349297,
 1.5671085,-0.808668,0.0076451,-0.1142187,-0.061951,-0.5301067,0.265701
 9,0.1112849,0.250706,-1.2597265,-1.3688161,-0.1976109,0.3750606,-0.135
 3399,-0.5070345,0.0658637,0.2223989,0.0573159,-0.6066524,0.3921387,0.0
 020905,-0.0039936,0.0117663,0.3744209,0.0440677,-0.0357483,0.0389342,0
 .2625749,0.3985091,-0.0511001,-0.2680159,0.0354486,0.3877109,0.0381784
 ,-0.2304935,0.0980033,0.2090785,0.0083262,-0.0343905,0.0274182,-0.0168
 735,-0.05793,0.0916751,0.0498375,0.0601844,-0.0035411,-0.0695111,0.040
 5103,0.0267573,0.0434617,-0.1119281,-0.1270468,0.057953,-0.1000223,-0.
 0674111,-0.5579368,0.0579357,0.1579454,0.0895861,-0.5763842,-0.1397161
 ,0.1557846,-0.1261203,-0.4383694,0.0898588,-0.022198,-0.0441063,-0.134
 2768,0.3003678,-0.0115691,-0.087036,0.0147958,0.1110782,0.186013,0.018
 0634,0.003518,-0.0223487,0.1561945,0.1486297,0.0149293,0.0555,0.225860
 5\Polar=34.8379763,0.4314385,22.4761014,-0.0725516,-3.4354338,32.56030
 76\PolarDeriv=2.2823803,0.1123971,1.2071579,0.6255022,0.0710399,0.1800
 601,-0.4935667,0.7019372,1.0681486,-0.3452733,-1.9534679,0.4848118,2.5
 568172,-0.1432626,-0.4122912,1.3454056,0.6582476,-3.9747702,-1.2493607
 ,-0.9841613,-0.1762068,2.783538,-0.014544,-0.1312841,-0.618228,-0.3493
 257,-2.1258695,0.1611579,3.2055559,-0.9874572,1.0481117,0.1764272,0.81
 97327,-0.6771535,-1.7608837,9.5321776,-0.5950334,0.8393496,0.0592969,-
 2.6901943,-0.212443,0.3945056,1.9787009,0.7515552,0.8147676,0.1927247,
 -0.9978345,0.3785158,-5.5115493,-0.1313282,0.0070119,-0.1351004,0.8352
 713,-3.3424163,6.4874089,-0.2284371,0.0223603,1.8159085,-0.1452209,0.6
 751019,-1.2549433,1.3174329,-0.1836354,-0.3057628,0.5737295,-0.1617943
 ,4.2349662,-0.042241,-0.0108911,2.3413552,-0.1723201,1.4919007,-0.8967
 955,0.2496639,-1.9611552,-1.7007778,-0.1684659,-1.2561537,-0.3024452,-
 0.6432623,-0.5991996,1.0023336,5.5695838,0.4110053,-4.7016064,0.544835
 7,4.5109097,-1.1471293,0.677854,3.4076401,0.8692728,1.7670319,0.486734
 3,-0.9820937,-0.4170576,0.2555399,0.8164532,0.614943,5.0704887,-0.3396
 45,-3.3257722,1.8820357,0.0096141,-0.2841468,-2.2688923,0.4961669,2.44
 40776,-3.9633584,0.5834033,-2.0111948,0.4497795,-1.3698199,0.4089023,0
 .4979321,-1.1637359,0.4845497,-4.7969842,0.0808787,-3.873311,-2.416865
 1,-0.0530484,0.1230648,-2.3325504,0.5053176,-2.9732234,-5.3330335,-0.2
 33712,1.4068734,0.0399824,3.5454159,-0.0154393,0.8659951,3.2399776,-0.
 3255968,3.8423113,-0.670361,-1.160414,3.0199551,5.6277335,-0.7937017,-
 1.2277468,1.1046902,2.4227547,0.8475968,-7.0687512,-0.1104166,0.015545
 8,-2.7517685,0.1565605,-1.0488342,-1.0329766,-1.6477171,-0.1828554,-0.
 477371,-0.6083416,-0.4324472,-3.8030306,0.0862293,0.1463178,-2.67581,-
 0.1014612,-2.2968314,-0.1788126,-1.0411062,-0.1434951,0.7242896,0.3366
 68,-0.4328625,-1.1692359,-0.9045163,-2.9071721,0.7013181,2.570272,-2.1
 777598,0.591992,0.4641234,0.7683997,-1.1577423,-2.0303168,3.6310946\Hy
 perPolar=6.3741019,-9.251412,4.097727,-2.2789647,-1.7924095,6.2414333,
 -23.8058636,0.1626462,-9.5693976,-35.4117669\Quadrupole=3.8485585,-1.5
 469114,-2.3016471,2.2349325,3.5617119,0.6905337\PG=C01 [X(C2H5N1O2)]\N
 Imag=0\\0.74206176,0.03629885,0.37438772,-0.00155700,-0.27984418,1.155
 05477,-0.14602832,-0.01732905,0.03858381,0.13568749,-0.00917307,-0.175
 94703,0.24407651,0.03358114,0.13806947,0.01989028,0.24435889,-0.838080
 93,-0.08398826,-0.29898815,0.94180284,-0.33236418,-0.04271961,0.073408
 47,-0.01051571,-0.02750403,0.07124798,0.70242630,-0.03049980,-0.093732
 94,0.03598356,-0.03127526,0.02154505,0.03475648,0.00480041,0.09663290,
 0.04099263,0.03351742,-0.17492613,0.08621003,0.03649676,-0.05561575,0.
 12008497,-0.14781312,0.51654568,-0.05086787,0.00917020,-0.04027873,0.0
 1209152,0.00212377,-0.00196441,-0.30990017,0.05379275,-0.21850197,0.35
 284738,-0.00995939,0.00764127,-0.00948246,0.00186584,-0.00673362,-0.00
 059240,0.07279644,-0.04055097,0.07917040,-0.06313809,0.03463666,0.0172
 6363,-0.00588609,0.02660903,-0.00163206,-0.00022672,-0.00619028,-0.275
 93562,0.07578468,-0.30118328,0.25603648,-0.07176418,0.28046229,-0.1831
 6775,0.01491789,-0.07412154,0.01185103,-0.00202962,0.00507702,-0.03848
 846,0.00083532,-0.02213312,-0.00351371,-0.00188661,0.00282271,0.609633
 12,0.01270093,-0.11313600,0.00665780,0.01014949,0.02445252,0.02174098,
 -0.00837775,0.01311783,0.00006006,-0.00180766,0.00437556,0.00238450,0.
 01422068,0.64225383,-0.06942513,0.00469005,-0.14701279,-0.02603541,0.0
 1606822,-0.04034884,0.01786762,0.00204607,0.01431660,0.00605987,0.0034
 9669,0.00016789,-0.02578041,-0.04874121,0.64008791,0.01018725,0.029025
 56,-0.01249986,-0.00449346,-0.00226404,-0.00685805,-0.00138869,-0.0016
 1677,0.00003751,0.00062563,-0.00007733,0.00002972,-0.06914926,-0.03345
 236,0.02070499,0.07702361,-0.00338800,-0.00196934,0.00051294,0.0009696
 5,0.00019876,-0.00045128,0.00018457,0.00090477,-0.00111170,0.00028045,
 0.00025976,-0.00003753,-0.03451620,-0.25863921,0.13465219,0.03895627,0
 .27285081,0.00817884,0.02486177,-0.01510298,-0.00507765,-0.00139085,-0
 .00401640,0.00077968,-0.00237964,0.00191216,0.00022522,-0.00069674,-0.
 00026219,0.02010995,0.12928606,-0.14462881,-0.03194280,-0.14369494,0.1
 5998122,0.00546380,-0.02965477,-0.01510396,-0.00201092,0.00536805,-0.0
 0264580,-0.00253604,0.00229447,0.00118591,0.00017808,0.00090242,0.0003
 6363,-0.06376305,-0.00475979,-0.00668897,0.00189211,-0.00243648,-0.002
 38322,0.06801291,0.00084656,0.00371943,0.00276487,-0.00027133,-0.00140
 987,0.00063112,-0.00083884,0.00051655,-0.00013006,-0.00030851,-0.00009
 033,-0.00003709,-0.00391841,-0.22570242,-0.12176779,-0.00265383,-0.025
 80195,-0.02001326,-0.00230393,0.24194821,0.00138406,-0.02714951,-0.018
 08735,-0.00272971,0.00519209,-0.00075986,-0.00118115,0.00226998,0.0012
 1170,-0.00040174,0.00075037,0.00010784,-0.00364045,-0.12451481,-0.1558
 6350,0.00085988,0.01600073,0.01531491,-0.00417308,0.14139851,0.1689723
 4,-0.03752437,0.00431924,0.01789397,-0.00012853,-0.00175739,0.00254206
 ,-0.00741451,0.00054537,-0.00443568,-0.00071989,-0.00034694,0.00087402
 ,-0.23468698,0.04835088,0.08068047,-0.00727503,-0.00102112,0.00602258,
 -0.01016969,0.00786680,0.01047853,0.69930837,0.00137998,-0.00149479,-0
 .00512376,0.00002279,0.00064858,0.00105163,0.00200424,0.00126200,0.000
 48430,-0.00005027,0.00026694,-0.00027056,-0.00124828,-0.08512695,0.019
 96315,-0.02657645,0.01131891,0.01339442,0.03044703,0.00508256,-0.01459
 062,0.04349882,0.35288997,-0.02031533,0.00470596,0.01408155,-0.0022539
 5,-0.00089240,0.00354686,-0.00793854,-0.00061627,-0.00277360,-0.001516
 82,-0.00100525,0.00024350,0.06743733,-0.00088376,-0.16783728,0.0290866
 4,-0.00443848,-0.01316130,0.03027583,-0.00310486,-0.01180255,0.0841002
 5,-0.22549912,0.67269551,-0.00408996,-0.00021362,0.00684197,0.00113559
 ,-0.00020224,-0.00024783,-0.00213525,0.00027986,-0.00153596,-0.0003749
 3,-0.00020481,0.00020856,-0.02719207,-0.00496486,-0.02753969,0.0000048
 9,-0.00048673,0.00030685,0.00268800,0.00093281,-0.00050974,-0.32196112
 ,-0.03226600,-0.19421657,0.34665091,0.00223366,-0.00046186,0.00031230,
 0.00016545,0.00043533,-0.00049600,-0.00043659,0.00014344,0.00005411,0.
 00005192,0.00013991,-0.00001325,0.01033664,-0.00228252,0.00065047,-0.0
 0086251,-0.00027204,0.00024473,-0.00048720,0.00082702,0.00162497,-0.07
 837630,-0.03362507,-0.03243377,0.03787185,0.03197557,0.00452981,0.0005
 8153,-0.00600571,-0.00193584,-0.00002210,0.00149830,0.00149819,-0.0002
 4213,0.00148510,0.00049423,0.00015493,-0.00006570,0.02586692,-0.000981
 75,0.01706489,-0.00082217,0.00055983,0.00017820,-0.00017424,-0.0000545
 5,0.00119134,-0.21441630,0.00070240,-0.23545317,0.21264148,0.01029975,
 0.23839998,-0.00367036,-0.00381468,0.00683286,0.00241130,0.00185743,-0
 .00305298,0.00231670,0.00084365,-0.00190431,-0.00036604,0.00004847,-0.
 00003106,-0.00152286,-0.03205955,0.03015666,-0.00742706,0.00145758,0.0
 0378055,0.00024482,0.00064869,-0.00008658,-0.07942825,-0.01721185,0.01
 534117,0.00527396,0.02950309,-0.02768209,0.08216779,-0.00043971,0.0009
 9354,0.00414242,0.00212128,-0.00125918,-0.00201128,0.00009115,0.000161
 36,-0.00072818,-0.00011457,0.00005483,0.00006624,0.00328861,0.00068736
 ,-0.01105785,-0.00047853,0.00114953,0.00038844,0.00063021,0.00091081,-
 0.00098170,-0.02307936,-0.25122214,0.26416796,-0.00074626,0.00312023,-
 0.01099790,0.01872718,0.24540366,-0.00094178,0.00016416,0.00347055,-0.
 00114095,-0.00031335,-0.00183594,0.00016838,0.00021038,-0.00097251,-0.
 00015212,-0.00003136,0.00011090,0.00436159,0.01499213,-0.01594608,0.00
 140414,-0.00199175,-0.00021482,-0.00065609,0.00031310,-0.00028488,0.01
 626012,0.20988817,-0.25953954,0.00405094,0.01975669,-0.01829322,-0.023
 35422,-0.24298816,0.29350553\\0.00001702,0.00000303,0.00001314,-0.0000
 2262,-0.00000261,0.00000204,-0.00000229,0.00000084,-0.00001855,-0.0000
 2030,0.00000058,0.00000198,-0.00002640,0.00000989,0.00001056,0.0000079
 2,0.00000438,-0.00001016,0.00000017,-0.00000175,-0.00000262,0.00003536
 ,-0.00002774,0.00001206,0.00000285,0.00000519,-0.00000870,0.00000830,0
 .00000819,0.00000027\\\@


 IF NO USE IS MADE OF THE LABOR OF PAST AGES,
 THE WORLD MUST REMAIN ALWAYS IN THE INFANCY OF KNOWLEDGE.

                          -- CICERO
 Job cpu time:       0 days  0 hours  0 minutes 11.1 seconds.
 Elapsed time:       0 days  0 hours  0 minutes 11.1 seconds.
 File lengths (MBytes):  RWF=     22 Int=      0 D2E=      0 Chk=      3 Scr=      1
 Normal termination of Gaussian 16 at Fri Mar  6 02:48:49 2020.
