 Entering Gaussian System, Link 0=g16
 Input=glycine_3.0.com
 Output=glycine_3.0.log
 Initial command:
 /opt/g16/l1.exe "/scratch/Grace/g03/Gau-14324.inp" -scrdir="/scratch/Grace/g03/"
 Entering Link 1 = /opt/g16/l1.exe PID=     14325.
  
 Copyright (c) 1988,1990,1992,1993,1995,1998,2003,2009,2016,
            Gaussian, Inc.  All Rights Reserved.
  
 This is part of the Gaussian(R) 16 program.  It is based on
 the Gaussian(R) 09 system (copyright 2009, Gaussian, Inc.),
 the Gaussian(R) 03 system (copyright 2003, Gaussian, Inc.),
 the Gaussian(R) 98 system (copyright 1998, Gaussian, Inc.),
 the Gaussian(R) 94 system (copyright 1995, Gaussian, Inc.),
 the Gaussian 92(TM) system (copyright 1992, Gaussian, Inc.),
 the Gaussian 90(TM) system (copyright 1990, Gaussian, Inc.),
 the Gaussian 88(TM) system (copyright 1988, Gaussian, Inc.),
 the Gaussian 86(TM) system (copyright 1986, Carnegie Mellon
 University), and the Gaussian 82(TM) system (copyright 1983,
 Carnegie Mellon University). Gaussian is a federally registered
 trademark of Gaussian, Inc.
  
 This software contains proprietary and confidential information,
 including trade secrets, belonging to Gaussian, Inc.
  
 This software is provided under written license and may be
 used, copied, transmitted, or stored only in accord with that
 written license.
  
 The following legend is applicable only to US Government
 contracts under FAR:
  
                    RESTRICTED RIGHTS LEGEND
  
 Use, reproduction and disclosure by the US Government is
 subject to restrictions as set forth in subparagraphs (a)
 and (c) of the Commercial Computer Software - Restricted
 Rights clause in FAR 52.227-19.
  
 Gaussian, Inc.
 340 Quinnipiac St., Bldg. 40, Wallingford CT 06492
  
  
 ---------------------------------------------------------------
 Warning -- This program may not be used in any manner that
 competes with the business of Gaussian, Inc. or will provide
 assistance to any competitor of Gaussian, Inc.  The licensee
 of this program is prohibited from giving any competitor of
 Gaussian, Inc. access to this program.  By using this program,
 the user acknowledges that Gaussian, Inc. is engaged in the
 business of creating and licensing software in the field of
 computational chemistry and represents and warrants to the
 licensee that it is not a competitor of Gaussian, Inc. and that
 it will not use this program in any manner prohibited above.
 ---------------------------------------------------------------
  

 Cite this work as:
 Gaussian 16, Revision A.03,
 M. J. Frisch, G. W. Trucks, H. B. Schlegel, G. E. Scuseria, 
 M. A. Robb, J. R. Cheeseman, G. Scalmani, V. Barone, 
 G. A. Petersson, H. Nakatsuji, X. Li, M. Caricato, A. V. Marenich, 
 J. Bloino, B. G. Janesko, R. Gomperts, B. Mennucci, H. P. Hratchian, 
 J. V. Ortiz, A. F. Izmaylov, J. L. Sonnenberg, D. Williams-Young, 
 F. Ding, F. Lipparini, F. Egidi, J. Goings, B. Peng, A. Petrone, 
 T. Henderson, D. Ranasinghe, V. G. Zakrzewski, J. Gao, N. Rega, 
 G. Zheng, W. Liang, M. Hada, M. Ehara, K. Toyota, R. Fukuda, 
 J. Hasegawa, M. Ishida, T. Nakajima, Y. Honda, O. Kitao, H. Nakai, 
 T. Vreven, K. Throssell, J. A. Montgomery, Jr., J. E. Peralta, 
 F. Ogliaro, M. J. Bearpark, J. J. Heyd, E. N. Brothers, K. N. Kudin, 
 V. N. Staroverov, T. A. Keith, R. Kobayashi, J. Normand, 
 K. Raghavachari, A. P. Rendell, J. C. Burant, S. S. Iyengar, 
 J. Tomasi, M. Cossi, J. M. Millam, M. Klene, C. Adamo, R. Cammi, 
 J. W. Ochterski, R. L. Martin, K. Morokuma, O. Farkas, 
 J. B. Foresman, and D. J. Fox, Gaussian, Inc., Wallingford CT, 2016.
 
 ******************************************
 Gaussian 16:  ES64L-G16RevA.03 25-Dec-2016
                14-Mar-2020 
 ******************************************
 %chk=glycine_3.0.chk
 %mem=600MW
 %nprocshared=4
 Will use up to    4 processors via shared memory.
 ---------------------
 # UHF/6-31G(d) Nosymm
 ---------------------
 1/38=1,172=1/1;
 2/12=2,15=1,17=6,18=5,40=1/2;
 3/5=1,6=6,7=1,11=2,25=1,30=1,116=2/1,2,3;
 4//1;
 5/5=2,38=5/2;
 6/7=2,8=2,9=2,10=2,28=1/1;
 99/5=1,9=1/99;
 ------------
 ground state
 ------------
 Symbolic Z-matrix:
 Charge =  0 Multiplicity = 1
 C
 O                    1    B1
 O                    1    B2       2    A1
 H                    3    B3       1    A2       2    D1       0
 C                    1    B4       2    A3       3    D2       0
 H                    5    B5       1    A4       2    D3       0
 H                    5    B6       1    A5       2    D4       0
 N                    5    B7       1    A6       2    D5       0
 H                    8    B8       5    A7       1    D6       0
 H                    8    B9       5    A8       1    D7       0
       Variables:
  B1                    1.18694                  
  B2                    1.32859                  
  B3                    0.95245                  
  B4                    3.                       
  B5                    1.08274                  
  B6                    1.09291                  
  B7                    1.44298                  
  B8                    1.00006                  
  B9                    1.00058                  
  A1                  122.88609                  
  A2                  108.26804                  
  A3                  125.15773                  
  A4                  108.61259                  
  A5                  105.73928                  
  A6                  110.21098                  
  A7                  111.02372                  
  A8                  110.69023                  
  D1                    0.23997                  
  D2                  177.02737                  
  D3                  142.70224                  
  D4                 -103.08273                  
  D5                   21.8015                   
  D6                 -166.73799                  
  D7                  -46.08017                  
 
                          Input orientation:                          
 ---------------------------------------------------------------------
 Center     Atomic      Atomic             Coordinates (Angstroms)
 Number     Number       Type             X           Y           Z
 ---------------------------------------------------------------------
      1          6           0        0.000000    0.000000    0.000000
      2          8           0        0.000000    0.000000    1.186941
      3          8           0        1.115684    0.000000   -0.721384
      4          1           0        1.857481   -0.003788   -0.123988
      5          6           0       -2.449409   -0.127195   -1.727488
      6          1           0       -2.294407    0.503473   -2.593839
      7          1           0       -2.501399   -1.155903   -2.092874
      8          7           0       -3.605520    0.316362   -0.986635
      9          1           0       -4.450909    0.081839   -1.466667
     10          1           0       -3.626897   -0.104815   -0.079268
 ---------------------------------------------------------------------
                    Distance matrix (angstroms):
                    1          2          3          4          5
     1  C    0.000000
     2  O    1.186941   0.000000
     3  O    1.328588   2.210533   0.000000
     4  H    1.861619   2.273497   0.952449   0.000000
     5  C    3.000000   3.809158   3.706523   4.597363   0.000000
     6  H    3.499398   4.451077   3.922791   4.857536   1.082742
     7  H    3.460235   4.283724   4.037373   4.919727   1.092909
     8  N    3.751441   4.221883   4.739221   5.539950   1.442982
     9  H    4.687046   5.182559   5.616858   6.450264   2.029217
    10  H    3.629277   3.843001   4.787001   5.485491   2.025736
                    6          7          8          9         10
     6  H    0.000000
     7  H    1.745663   0.000000
     8  N    2.082578   2.147187   0.000000
     9  H    2.469573   2.392641   1.000056   0.000000
    10  H    2.910087   2.534984   1.000580   1.624410   0.000000
 Symmetry turned off by external request.
 Stoichiometry    C2H5NO2
 Framework group  C1[X(C2H5NO2)]
 Deg. of freedom    24
 Full point group                 C1      NOp   1
 Rotational constants (GHZ):           9.2053725           1.8006180           1.5310040
 Standard basis: 6-31G(d) (6D, 7F)
    85 basis functions,   160 primitive gaussians,    85 cartesian basis functions
    20 alpha electrons       20 beta electrons
       nuclear repulsion energy       152.4115288793 Hartrees.
 NAtoms=   10 NActive=   10 NUniq=   10 SFac= 1.00D+00 NAtFMM=   60 NAOKFM=F Big=F
 Integral buffers will be    131072 words long.
 Raffenetti 2 integral format.
 Two-electron integral symmetry is turned off.
 One-electron integrals computed using PRISM.
 NBasis=    85 RedAO= T EigKep=  5.80D-03  NBF=    85
 NBsUse=    85 1.00D-06 EigRej= -1.00D+00 NBFU=    85
 ExpMin= 1.61D-01 ExpMax= 5.48D+03 ExpMxC= 8.25D+02 IAcc=3 IRadAn=         5 AccDes= 0.00D+00
 Harris functional with IExCor=  205 and IRadAn=       5 diagonalized for initial guess.
 HarFok:  IExCor=  205 AccDes= 0.00D+00 IRadAn=         5 IDoV= 1 UseB2=F ITyADJ=14
 ICtDFT=  3500011 ScaDFX=  1.000000  1.000000  1.000000  1.000000
 FoFCou: FMM=F IPFlag=           0 FMFlag=      100000 FMFlg1=           0
         NFxFlg=           0 DoJE=T BraDBF=F KetDBF=T FulRan=T
         wScrn=  0.000000 ICntrl=       500 IOpCl=  0 I1Cent=   200000004 NGrid=           0
         NMat0=    1 NMatS0=      1 NMatT0=    0 NMatD0=    1 NMtDS0=    0 NMtDT0=    0
 Symmetry not used in FoFCou.
 Initial guess <Sx>= 0.0000 <Sy>= 0.0000 <Sz>= 0.0000 <S**2>= 0.0000 S= 0.0000
 Keep R1 and R2 ints in memory in canonical form, NReq=14219570.
 Requested convergence on RMS density matrix=1.00D-08 within 128 cycles.
 Requested convergence on MAX density matrix=1.00D-06.
 Requested convergence on             energy=1.00D-06.
 No special actions if energy rises.
 SCF Done:  E(UHF) =  -282.606512194     A.U. after   15 cycles
            NFock= 15  Conv=0.42D-08     -V/T= 2.0035
 <Sx>= 0.0000 <Sy>= 0.0000 <Sz>= 0.0000 <S**2>=-0.0000 S=-0.0000
 <L.S>= 0.000000000000E+00
 Annihilation of the first spin contaminant:
 S**2 before annihilation    -0.0000,   after     0.0000

 **********************************************************************

            Population analysis using the SCF density.

 **********************************************************************

 Alpha  occ. eigenvalues --  -20.61598 -20.56547 -15.57615 -11.39025 -11.34962
 Alpha  occ. eigenvalues --   -1.46725  -1.36340  -1.21227  -0.90511  -0.83034
 Alpha  occ. eigenvalues --   -0.69641  -0.68726  -0.65176  -0.64365  -0.61956
 Alpha  occ. eigenvalues --   -0.60207  -0.51443  -0.48197  -0.42426  -0.29185
 Alpha virt. eigenvalues --    0.00628   0.21090   0.21834   0.25137   0.26483
 Alpha virt. eigenvalues --    0.30088   0.30722   0.40351   0.49098   0.51795
 Alpha virt. eigenvalues --    0.70206   0.72864   0.73914   0.80645   0.82598
 Alpha virt. eigenvalues --    0.88551   0.96484   0.98571   0.99910   1.02734
 Alpha virt. eigenvalues --    1.07097   1.08308   1.11189   1.15097   1.16681
 Alpha virt. eigenvalues --    1.20071   1.20549   1.22388   1.25451   1.30367
 Alpha virt. eigenvalues --    1.34106   1.40587   1.53087   1.59290   1.67872
 Alpha virt. eigenvalues --    1.73998   1.77130   1.77564   1.77970   1.86441
 Alpha virt. eigenvalues --    2.04918   2.08932   2.12701   2.15753   2.20105
 Alpha virt. eigenvalues --    2.23844   2.33861   2.42710   2.45635   2.54270
 Alpha virt. eigenvalues --    2.66680   2.70782   2.71122   2.80437   2.92021
 Alpha virt. eigenvalues --    2.98121   3.00917   3.10446   3.28369   3.38366
 Alpha virt. eigenvalues --    4.15027   4.17430   4.25401   4.47596   4.60674
  Beta  occ. eigenvalues --  -20.61598 -20.56547 -15.57615 -11.39025 -11.34962
  Beta  occ. eigenvalues --   -1.46725  -1.36340  -1.21227  -0.90511  -0.83034
  Beta  occ. eigenvalues --   -0.69641  -0.68726  -0.65176  -0.64365  -0.61956
  Beta  occ. eigenvalues --   -0.60207  -0.51443  -0.48197  -0.42426  -0.29185
  Beta virt. eigenvalues --    0.00628   0.21090   0.21834   0.25137   0.26483
  Beta virt. eigenvalues --    0.30088   0.30722   0.40351   0.49098   0.51795
  Beta virt. eigenvalues --    0.70206   0.72864   0.73914   0.80645   0.82598
  Beta virt. eigenvalues --    0.88551   0.96484   0.98571   0.99910   1.02734
  Beta virt. eigenvalues --    1.07097   1.08308   1.11189   1.15097   1.16681
  Beta virt. eigenvalues --    1.20071   1.20549   1.22388   1.25451   1.30367
  Beta virt. eigenvalues --    1.34106   1.40587   1.53087   1.59290   1.67872
  Beta virt. eigenvalues --    1.73998   1.77130   1.77564   1.77970   1.86441
  Beta virt. eigenvalues --    2.04918   2.08932   2.12701   2.15753   2.20105
  Beta virt. eigenvalues --    2.23844   2.33861   2.42710   2.45635   2.54270
  Beta virt. eigenvalues --    2.66680   2.70782   2.71122   2.80437   2.92021
  Beta virt. eigenvalues --    2.98121   3.00917   3.10446   3.28369   3.38366
  Beta virt. eigenvalues --    4.15027   4.17430   4.25401   4.47596   4.60674
          Condensed to atoms (all electrons):
               1          2          3          4          5          6
     1  C    4.624362   0.518014   0.194675   0.003119   0.156337  -0.001217
     2  O    0.518014   8.064581  -0.077737   0.009830  -0.007315   0.000017
     3  O    0.194675  -0.077737   8.322553   0.213625  -0.008400   0.000060
     4  H    0.003119   0.009830   0.213625   0.326903   0.000774  -0.000005
     5  C    0.156337  -0.007315  -0.008400   0.000774   4.991488   0.387907
     6  H   -0.001217   0.000017   0.000060  -0.000005   0.387907   0.501022
     7  H   -0.003997   0.000076   0.000154  -0.000015   0.378055  -0.051631
     8  N   -0.004889   0.000226   0.000031  -0.000004   0.270405  -0.048639
     9  H    0.000348  -0.000009  -0.000001   0.000000  -0.033412   0.000300
    10  H   -0.000405   0.000206   0.000004  -0.000001  -0.031349   0.003873
               7          8          9         10
     1  C   -0.003997  -0.004889   0.000348  -0.000405
     2  O    0.000076   0.000226  -0.000009   0.000206
     3  O    0.000154   0.000031  -0.000001   0.000004
     4  H   -0.000015  -0.000004   0.000000  -0.000001
     5  C    0.378055   0.270405  -0.033412  -0.031349
     6  H   -0.051631  -0.048639   0.000300   0.003873
     7  H    0.547888  -0.053021  -0.001695  -0.002332
     8  N   -0.053021   7.017796   0.320736   0.330521
     9  H   -0.001695   0.320736   0.373820  -0.022114
    10  H   -0.002332   0.330521  -0.022114   0.347375
          Atomic-Atomic Spin Densities.
               1          2          3          4          5          6
     1  C    0.000000   0.000000   0.000000   0.000000   0.000000   0.000000
     2  O    0.000000   0.000000   0.000000   0.000000   0.000000   0.000000
     3  O    0.000000   0.000000   0.000000   0.000000   0.000000   0.000000
     4  H    0.000000   0.000000   0.000000   0.000000   0.000000   0.000000
     5  C    0.000000   0.000000   0.000000   0.000000   0.000000   0.000000
     6  H    0.000000   0.000000   0.000000   0.000000   0.000000   0.000000
     7  H    0.000000   0.000000   0.000000   0.000000   0.000000   0.000000
     8  N    0.000000   0.000000   0.000000   0.000000   0.000000   0.000000
     9  H    0.000000   0.000000   0.000000   0.000000   0.000000   0.000000
    10  H    0.000000   0.000000   0.000000   0.000000   0.000000   0.000000
               7          8          9         10
     1  C    0.000000   0.000000   0.000000   0.000000
     2  O    0.000000   0.000000   0.000000   0.000000
     3  O    0.000000   0.000000   0.000000   0.000000
     4  H    0.000000   0.000000   0.000000   0.000000
     5  C    0.000000   0.000000   0.000000   0.000000
     6  H    0.000000   0.000000   0.000000   0.000000
     7  H    0.000000   0.000000   0.000000   0.000000
     8  N    0.000000   0.000000   0.000000   0.000000
     9  H    0.000000   0.000000   0.000000   0.000000
    10  H    0.000000   0.000000   0.000000   0.000000
 Mulliken charges and spin densities:
               1          2
     1  C    0.513653   0.000000
     2  O   -0.507890   0.000000
     3  O   -0.644964   0.000000
     4  H    0.445773   0.000000
     5  C   -0.104490   0.000000
     6  H    0.208313   0.000000
     7  H    0.186519   0.000000
     8  N   -0.833161   0.000000
     9  H    0.362027   0.000000
    10  H    0.374221   0.000000
 Sum of Mulliken charges =  -0.00000   0.00000
 Mulliken charges and spin densities with hydrogens summed into heavy atoms:
               1          2
     1  C    0.513653   0.000000
     2  O   -0.507890   0.000000
     3  O   -0.199191   0.000000
     5  C    0.290341   0.000000
     8  N   -0.096914   0.000000
 Electronic spatial extent (au):  <R**2>=            913.6466
 Charge=              0.0000 electrons
 Dipole moment (field-independent basis, Debye):
    X=             -1.8378    Y=             -1.6202    Z=             -2.5386  Tot=              3.5280
 Quadrupole moment (field-independent basis, Debye-Ang):
   XX=            -12.7388   YY=            -31.0489   ZZ=            -28.8246
   XY=              5.9627   XZ=              8.1705   YZ=              1.3133
 Traceless Quadrupole moment (field-independent basis, Debye-Ang):
   XX=             11.4653   YY=             -6.8448   ZZ=             -4.6205
   XY=              5.9627   XZ=              8.1705   YZ=              1.3133
 Octapole moment (field-independent basis, Debye-Ang**2):
  XXX=             50.6825  YYY=             -4.4269  ZZZ=             31.2640  XYY=             39.1665
  XXY=            -22.1371  XXZ=             -4.7446  XZZ=             12.9417  YZZ=             -1.7603
  YYZ=             16.8768  XYZ=             -4.7597
 Hexadecapole moment (field-independent basis, Debye-Ang**3):
 XXXX=           -548.1364 YYYY=            -37.8800 ZZZZ=           -238.6255 XXXY=             87.8310
 XXXZ=            -51.0294 YYYX=             19.7147 YYYZ=              2.6061 ZZZX=           -100.3446
 ZZZY=             -0.6347 XXYY=           -169.7070 XXZZ=           -126.0604 YYZZ=            -49.2065
 XXYZ=             16.6936 YYXZ=            -50.8398 ZZXY=              8.0755
 N-N= 1.524115288793D+02 E-N=-9.698879951561D+02  KE= 2.816300084975D+02
                          Isotropic Fermi Contact Couplings
        Atom                 a.u.       MegaHertz       Gauss      10(-4) cm-1
     1  C(13)              0.00000       0.00000       0.00000       0.00000
     2  O(17)              0.00000      -0.00000      -0.00000      -0.00000
     3  O(17)              0.00000      -0.00000      -0.00000      -0.00000
     4  H(1)               0.00000       0.00000       0.00000       0.00000
     5  C(13)              0.00000       0.00000       0.00000       0.00000
     6  H(1)               0.00000       0.00000       0.00000       0.00000
     7  H(1)               0.00000       0.00000       0.00000       0.00000
     8  N(14)              0.00000       0.00000       0.00000       0.00000
     9  H(1)               0.00000       0.00000       0.00000       0.00000
    10  H(1)               0.00000       0.00000       0.00000       0.00000
 --------------------------------------------------------
       Center         ----  Spin Dipole Couplings  ----
                      3XX-RR        3YY-RR        3ZZ-RR
 --------------------------------------------------------
     1   Atom        0.000000      0.000000      0.000000
     2   Atom        0.000000      0.000000      0.000000
     3   Atom        0.000000      0.000000      0.000000
     4   Atom        0.000000      0.000000      0.000000
     5   Atom        0.000000      0.000000      0.000000
     6   Atom        0.000000      0.000000      0.000000
     7   Atom        0.000000      0.000000      0.000000
     8   Atom        0.000000      0.000000      0.000000
     9   Atom        0.000000      0.000000      0.000000
    10   Atom        0.000000      0.000000      0.000000
 --------------------------------------------------------
                        XY            XZ            YZ
 --------------------------------------------------------
     1   Atom        0.000000      0.000000      0.000000
     2   Atom        0.000000      0.000000      0.000000
     3   Atom        0.000000      0.000000      0.000000
     4   Atom        0.000000      0.000000      0.000000
     5   Atom        0.000000      0.000000      0.000000
     6   Atom        0.000000      0.000000      0.000000
     7   Atom        0.000000      0.000000      0.000000
     8   Atom        0.000000      0.000000      0.000000
     9   Atom        0.000000      0.000000      0.000000
    10   Atom        0.000000      0.000000      0.000000
 --------------------------------------------------------


 ---------------------------------------------------------------------------------
              Anisotropic Spin Dipole Couplings in Principal Axis System
 ---------------------------------------------------------------------------------

       Atom             a.u.   MegaHertz   Gauss  10(-4) cm-1        Axes

              Baa     0.0000     0.000     0.000     0.000  1.0000  0.0000  0.0000
     1 C(13)  Bbb     0.0000     0.000     0.000     0.000 -0.0000  1.0000  0.0000
              Bcc     0.0000     0.000     0.000     0.000  0.0000  0.0000  1.0000
 
              Baa     0.0000    -0.000    -0.000    -0.000  1.0000  0.0000  0.0000
     2 O(17)  Bbb     0.0000    -0.000    -0.000    -0.000 -0.0000  1.0000  0.0000
              Bcc     0.0000    -0.000    -0.000    -0.000  0.0000  0.0000  1.0000
 
              Baa     0.0000    -0.000    -0.000    -0.000  1.0000  0.0000  0.0000
     3 O(17)  Bbb     0.0000    -0.000    -0.000    -0.000 -0.0000  1.0000  0.0000
              Bcc     0.0000    -0.000    -0.000    -0.000  0.0000  0.0000  1.0000
 
              Baa     0.0000     0.000     0.000     0.000  1.0000  0.0000  0.0000
     4 H(1)   Bbb     0.0000     0.000     0.000     0.000 -0.0000  1.0000  0.0000
              Bcc     0.0000     0.000     0.000     0.000  0.0000  0.0000  1.0000
 
              Baa     0.0000     0.000     0.000     0.000  1.0000  0.0000  0.0000
     5 C(13)  Bbb     0.0000     0.000     0.000     0.000 -0.0000  1.0000  0.0000
              Bcc     0.0000     0.000     0.000     0.000  0.0000  0.0000  1.0000
 
              Baa     0.0000     0.000     0.000     0.000  1.0000  0.0000  0.0000
     6 H(1)   Bbb     0.0000     0.000     0.000     0.000 -0.0000  1.0000  0.0000
              Bcc     0.0000     0.000     0.000     0.000  0.0000  0.0000  1.0000
 
              Baa     0.0000     0.000     0.000     0.000  1.0000  0.0000  0.0000
     7 H(1)   Bbb     0.0000     0.000     0.000     0.000 -0.0000  1.0000  0.0000
              Bcc     0.0000     0.000     0.000     0.000  0.0000  0.0000  1.0000
 
              Baa     0.0000     0.000     0.000     0.000  1.0000  0.0000  0.0000
     8 N(14)  Bbb     0.0000     0.000     0.000     0.000 -0.0000  1.0000  0.0000
              Bcc     0.0000     0.000     0.000     0.000  0.0000  0.0000  1.0000
 
              Baa     0.0000     0.000     0.000     0.000  1.0000  0.0000  0.0000
     9 H(1)   Bbb     0.0000     0.000     0.000     0.000 -0.0000  1.0000  0.0000
              Bcc     0.0000     0.000     0.000     0.000  0.0000  0.0000  1.0000
 
              Baa     0.0000     0.000     0.000     0.000  1.0000  0.0000  0.0000
    10 H(1)   Bbb     0.0000     0.000     0.000     0.000 -0.0000  1.0000  0.0000
              Bcc     0.0000     0.000     0.000     0.000  0.0000  0.0000  1.0000
 

 ---------------------------------------------------------------------------------

 1\1\GINC-Q92\SP\UHF\6-31G(d)\C2H5N1O2\GRACE\14-Mar-2020\0\\# UHF/6-31G
 (d) Nosymm\\ground state\\0,1\C\O,1,1.18694126\O,1,1.32858791,2,122.88
 609185\H,3,0.95244923,1,108.26803601,2,0.23997401,0\C,1,3.,2,125.15773
 105,3,177.02736831,0\H,5,1.08274225,1,108.61258999,2,142.70223846,0\H,
 5,1.09290913,1,105.73927629,2,-103.08272599,0\N,5,1.44298247,1,110.210
 98033,2,21.80149795,0\H,8,1.0000564,5,111.02371786,1,-166.73798541,0\H
 ,8,1.00058045,5,110.69022985,1,-46.08017246,0\\Version=ES64L-G16RevA.0
 3\HF=-282.6065122\S2=0.\S2-1=0.\S2A=0.\RMSD=4.198e-09\Dipole=-0.723052
 2,-0.6374262,-0.9987446\Quadrupole=8.5241764,-5.0889436,-3.4352328,4.4
 33099,6.0745737,0.9764418\PG=C01 [X(C2H5N1O2)]\\@


 WHERE THERE IS MUCH DESIRE TO LEARN, THERE OF NECESSITY WILL BE
 MUCH ARGUING, MUCH WRITING, MANY OPINIONS; FOR OPINION IN GOOD MEN
 IS BUT KNOWLEDGE IN THE MAKING. -- JOHN MILTON.
 Job cpu time:       0 days  0 hours  0 minutes  6.3 seconds.
 Elapsed time:       0 days  0 hours  0 minutes  2.0 seconds.
 File lengths (MBytes):  RWF=     10 Int=      0 D2E=      0 Chk=      2 Scr=      1
 Normal termination of Gaussian 16 at Sat Mar 14 19:35:10 2020.
