ground state                                                            
SP        UHF                                                         6-31G(d)            
Number of atoms                            I               10
Info1-9                                    I   N=           9
          44          44           0           0           0         110
           1           1           2
Full Title                                 C   N=           1
ground state
Route                                      C   N=           2
# UHF/6-31G(d) Nosymm   
Charge                                     I                0
Multiplicity                               I                1
Number of electrons                        I               40
Number of alpha electrons                  I               20
Number of beta electrons                   I               20
Number of basis functions                  I               85
Number of independent functions            I               85
Number of point charges in /Mol/           I                0
Number of translation vectors              I                0
Atomic numbers                             I   N=          10
           6           8           8           1           6           1
           1           7           1           1
Nuclear charges                            R   N=          10
  6.00000000E+00  8.00000000E+00  8.00000000E+00  1.00000000E+00  6.00000000E+00
  1.00000000E+00  1.00000000E+00  7.00000000E+00  1.00000000E+00  1.00000000E+00
Current cartesian coordinates              R   N=          30
  0.00000000E+00  0.00000000E+00  0.00000000E+00  0.00000000E+00  0.00000000E+00
  2.24299391E+00  2.10833710E+00  0.00000000E+00 -1.36321858E+00  3.51013118E+00
 -7.15849857E-03 -2.34304223E-01 -4.62871306E+00 -2.40363571E-01 -3.26447916E+00
 -4.33580119E+00  9.51425368E-01 -4.90164469E+00 -4.72695812E+00 -2.18434044E+00
 -3.95495836E+00 -6.81344622E+00  5.97836995E-01 -1.86446975E+00 -8.41099852E+00
  1.54652666E-01 -2.77159816E+00 -6.85384229E+00 -1.98071153E-01 -1.49794840E-01
Number of symbols in /Mol/                 I                0
Force Field                                I                0
Atom Types                                 C   N=          10
                                                            
                                                            
Int Atom Types                             I   N=          10
           0           0           0           0           0           0
           0           0           0           0
MM charges                                 R   N=          10
  0.00000000E+00  0.00000000E+00  0.00000000E+00  0.00000000E+00  0.00000000E+00
  0.00000000E+00  0.00000000E+00  0.00000000E+00  0.00000000E+00  0.00000000E+00
Integer atomic weights                     I   N=          10
          12          16          16           1          12           1
           1          14           1           1
Real atomic weights                        R   N=          10
  1.20000000E+01  1.59949146E+01  1.59949146E+01  1.00782504E+00  1.20000000E+01
  1.00782504E+00  1.00782504E+00  1.40030740E+01  1.00782504E+00  1.00782504E+00
Atom fragment info                         I   N=          10
           0           0           0           0           0           0
           0           0           0           0
Atom residue num                           I   N=          10
           0           0           0           0           0           0
           0           0           0           0
Nuclear spins                              I   N=          10
           0           0           0           1           0           1
           1           2           1           1
Nuclear ZEff                               R   N=          10
 -3.60000000E+00 -5.60000000E+00 -5.60000000E+00 -1.00000000E+00 -3.60000000E+00
 -1.00000000E+00 -1.00000000E+00 -4.55000000E+00 -1.00000000E+00 -1.00000000E+00
Nuclear ZNuc                               R   N=          10
  6.00000000E+00  8.00000000E+00  8.00000000E+00  1.00000000E+00  6.00000000E+00
  1.00000000E+00  1.00000000E+00  7.00000000E+00  1.00000000E+00  1.00000000E+00
Nuclear QMom                               R   N=          10
  0.00000000E+00  0.00000000E+00  0.00000000E+00  0.00000000E+00  0.00000000E+00
  0.00000000E+00  0.00000000E+00  2.04400000E+00  0.00000000E+00  0.00000000E+00
Nuclear GFac                               R   N=          10
  0.00000000E+00  0.00000000E+00  0.00000000E+00  2.79284600E+00  0.00000000E+00
  2.79284600E+00  2.79284600E+00  4.03761000E-01  2.79284600E+00  2.79284600E+00
MicOpt                                     I   N=          10
          -1          -1          -1          -1          -1          -1
          -1          -1          -1          -1
Number of residues                         I                0
Number of secondary structures             I                0
Number of contracted shells                I               30
Number of primitive shells                 I               75
Pure/Cartesian d shells                    I                1
Pure/Cartesian f shells                    I                0
Highest angular momentum                   I                2
Largest degree of contraction              I                6
Shell types                                I   N=          30
           0          -1          -1           2           0          -1
          -1           2           0          -1          -1           2
           0           0           0          -1          -1           2
           0           0           0           0           0          -1
          -1           2           0           0           0           0
Number of primitives per shell             I   N=          30
           6           3           1           1           6           3
           1           1           6           3           1           1
           3           1           6           3           1           1
           3           1           3           1           6           3
           1           1           3           1           3           1
Shell to atom map                          I   N=          30
           1           1           1           1           2           2
           2           2           3           3           3           3
           4           4           5           5           5           5
           6           6           7           7           8           8
           8           8           9           9          10          10
Primitive exponents                        R   N=          75
  3.04752488E+03  4.57369518E+02  1.03948685E+02  2.92101553E+01  9.28666296E+00
  3.16392696E+00  7.86827235E+00  1.88128854E+00  5.44249258E-01  1.68714478E-01
  8.00000000E-01  5.48467166E+03  8.25234946E+02  1.88046958E+02  5.29645000E+01
  1.68975704E+01  5.79963534E+00  1.55396162E+01  3.59993359E+00  1.01376175E+00
  2.70005823E-01  8.00000000E-01  5.48467166E+03  8.25234946E+02  1.88046958E+02
  5.29645000E+01  1.68975704E+01  5.79963534E+00  1.55396162E+01  3.59993359E+00
  1.01376175E+00  2.70005823E-01  8.00000000E-01  1.87311370E+01  2.82539436E+00
  6.40121692E-01  1.61277759E-01  3.04752488E+03  4.57369518E+02  1.03948685E+02
  2.92101553E+01  9.28666296E+00  3.16392696E+00  7.86827235E+00  1.88128854E+00
  5.44249258E-01  1.68714478E-01  8.00000000E-01  1.87311370E+01  2.82539436E+00
  6.40121692E-01  1.61277759E-01  1.87311370E+01  2.82539436E+00  6.40121692E-01
  1.61277759E-01  4.17351146E+03  6.27457911E+02  1.42902093E+02  4.02343293E+01
  1.28202129E+01  4.39043701E+00  1.16263619E+01  2.71627981E+00  7.72218397E-01
  2.12031498E-01  8.00000000E-01  1.87311370E+01  2.82539436E+00  6.40121692E-01
  1.61277759E-01  1.87311370E+01  2.82539436E+00  6.40121692E-01  1.61277759E-01
Contraction coefficients                   R   N=          75
  1.83473713E-03  1.40373228E-02  6.88426223E-02  2.32184443E-01  4.67941348E-01
  3.62311985E-01 -1.19332420E-01 -1.60854152E-01  1.14345644E+00  1.00000000E+00
  1.00000000E+00  1.83107443E-03  1.39501722E-02  6.84450781E-02  2.32714336E-01
  4.70192898E-01  3.58520853E-01 -1.10777550E-01 -1.48026263E-01  1.13076702E+00
  1.00000000E+00  1.00000000E+00  1.83107443E-03  1.39501722E-02  6.84450781E-02
  2.32714336E-01  4.70192898E-01  3.58520853E-01 -1.10777550E-01 -1.48026263E-01
  1.13076702E+00  1.00000000E+00  1.00000000E+00  3.34946043E-02  2.34726953E-01
  8.13757326E-01  1.00000000E+00  1.83473713E-03  1.40373228E-02  6.88426223E-02
  2.32184443E-01  4.67941348E-01  3.62311985E-01 -1.19332420E-01 -1.60854152E-01
  1.14345644E+00  1.00000000E+00  1.00000000E+00  3.34946043E-02  2.34726953E-01
  8.13757326E-01  1.00000000E+00  3.34946043E-02  2.34726953E-01  8.13757326E-01
  1.00000000E+00  1.83477216E-03  1.39946270E-02  6.85865518E-02  2.32240873E-01
  4.69069948E-01  3.60455199E-01 -1.14961182E-01 -1.69117479E-01  1.14585195E+00
  1.00000000E+00  1.00000000E+00  3.34946043E-02  2.34726953E-01  8.13757326E-01
  1.00000000E+00  3.34946043E-02  2.34726953E-01  8.13757326E-01  1.00000000E+00
P(S=P) Contraction coefficients            R   N=          75
  0.00000000E+00  0.00000000E+00  0.00000000E+00  0.00000000E+00  0.00000000E+00
  0.00000000E+00  6.89990666E-02  3.16423961E-01  7.44308291E-01  1.00000000E+00
  0.00000000E+00  0.00000000E+00  0.00000000E+00  0.00000000E+00  0.00000000E+00
  0.00000000E+00  0.00000000E+00  7.08742682E-02  3.39752839E-01  7.27158577E-01
  1.00000000E+00  0.00000000E+00  0.00000000E+00  0.00000000E+00  0.00000000E+00
  0.00000000E+00  0.00000000E+00  0.00000000E+00  7.08742682E-02  3.39752839E-01
  7.27158577E-01  1.00000000E+00  0.00000000E+00  0.00000000E+00  0.00000000E+00
  0.00000000E+00  0.00000000E+00  0.00000000E+00  0.00000000E+00  0.00000000E+00
  0.00000000E+00  0.00000000E+00  0.00000000E+00  6.89990666E-02  3.16423961E-01
  7.44308291E-01  1.00000000E+00  0.00000000E+00  0.00000000E+00  0.00000000E+00
  0.00000000E+00  0.00000000E+00  0.00000000E+00  0.00000000E+00  0.00000000E+00
  0.00000000E+00  0.00000000E+00  0.00000000E+00  0.00000000E+00  0.00000000E+00
  0.00000000E+00  0.00000000E+00  6.75797439E-02  3.23907296E-01  7.40895140E-01
  1.00000000E+00  0.00000000E+00  0.00000000E+00  0.00000000E+00  0.00000000E+00
  0.00000000E+00  0.00000000E+00  0.00000000E+00  0.00000000E+00  0.00000000E+00
Coordinates of each shell                  R   N=          90
  0.00000000E+00  0.00000000E+00  0.00000000E+00  0.00000000E+00  0.00000000E+00
  0.00000000E+00  0.00000000E+00  0.00000000E+00  0.00000000E+00  0.00000000E+00
  0.00000000E+00  0.00000000E+00  0.00000000E+00  0.00000000E+00  2.24299391E+00
  0.00000000E+00  0.00000000E+00  2.24299391E+00  0.00000000E+00  0.00000000E+00
  2.24299391E+00  0.00000000E+00  0.00000000E+00  2.24299391E+00  2.10833710E+00
  0.00000000E+00 -1.36321858E+00  2.10833710E+00  0.00000000E+00 -1.36321858E+00
  2.10833710E+00  0.00000000E+00 -1.36321858E+00  2.10833710E+00  0.00000000E+00
 -1.36321858E+00  3.51013118E+00 -7.15849857E-03 -2.34304223E-01  3.51013118E+00
 -7.15849857E-03 -2.34304223E-01 -4.62871306E+00 -2.40363571E-01 -3.26447916E+00
 -4.62871306E+00 -2.40363571E-01 -3.26447916E+00 -4.62871306E+00 -2.40363571E-01
 -3.26447916E+00 -4.62871306E+00 -2.40363571E-01 -3.26447916E+00 -4.33580119E+00
  9.51425368E-01 -4.90164469E+00 -4.33580119E+00  9.51425368E-01 -4.90164469E+00
 -4.72695812E+00 -2.18434044E+00 -3.95495836E+00 -4.72695812E+00 -2.18434044E+00
 -3.95495836E+00 -6.81344622E+00  5.97836995E-01 -1.86446975E+00 -6.81344622E+00
  5.97836995E-01 -1.86446975E+00 -6.81344622E+00  5.97836995E-01 -1.86446975E+00
 -6.81344622E+00  5.97836995E-01 -1.86446975E+00 -8.41099852E+00  1.54652666E-01
 -2.77159816E+00 -8.41099852E+00  1.54652666E-01 -2.77159816E+00 -6.85384229E+00
 -1.98071153E-01 -1.49794840E-01 -6.85384229E+00 -1.98071153E-01 -1.49794840E-01
Num ILSW                                   I              100
ILSW                                       I   N=         100
           1           1           0           0           2           0
           0           0           0           0           0          -1
           5           0           0           0           0           0
           0           0           1           0           0           0
           1           1           0           0           0           0
           0           0      100000           0          -1           0
           0           0           0           0           0           0
           0           0           0           1           0           0
           0 -2000000000           1           0           0           0
           0           0           4          52           0           0
           0           0           0           0           0           0
           0           0           0           0           0           1
           0           0           0           0           0           0
           0           0           0           0           0           0
           0           0           0           0           0           0
           0           0           0           0           0           0
           0           0           0           0
Num RLSW                                   I               52
RLSW                                       R   N=          52
  1.00000000E+00  1.00000000E+00  1.00000000E+00  1.00000000E+00  1.00000000E+00
  0.00000000E+00  0.00000000E+00  1.00000000E+00  0.00000000E+00  0.00000000E+00
  0.00000000E+00  0.00000000E+00  1.00000000E+00  0.00000000E+00  0.00000000E+00
  0.00000000E+00  0.00000000E+00  1.00000000E+00  0.00000000E+00  0.00000000E+00
  0.00000000E+00  0.00000000E+00  1.00000000E+00  0.00000000E+00  0.00000000E+00
  0.00000000E+00  0.00000000E+00  1.00000000E+00  0.00000000E+00  0.00000000E+00
  0.00000000E+00  0.00000000E+00  1.00000000E+00  0.00000000E+00  0.00000000E+00
  0.00000000E+00  0.00000000E+00  0.00000000E+00  1.00000000E+00  1.00000000E+00
  0.00000000E+00  1.00000000E+00  0.00000000E+00  0.00000000E+00  0.00000000E+00
  0.00000000E+00  0.00000000E+00  0.00000000E+00  0.00000000E+00  0.00000000E+00
  0.00000000E+00  0.00000000E+00
MxBond                                     I                3
NBond                                      I   N=          10
           2           1           2           1           3           1
           1           3           1           1
IBond                                      I   N=          30
           2           3           0           1           0           0
           1           4           0           3           0           0
           6           7           8           5           0           0
           5           0           0           5           9          10
           8           0           0           8           0           0
RBond                                      R   N=          30
  2.00000000E+00  1.00000000E+00  0.00000000E+00  2.00000000E+00  0.00000000E+00
  0.00000000E+00  1.00000000E+00  1.00000000E+00  0.00000000E+00  1.00000000E+00
  0.00000000E+00  0.00000000E+00  1.00000000E+00  1.00000000E+00  1.00000000E+00
  1.00000000E+00  0.00000000E+00  0.00000000E+00  1.00000000E+00  0.00000000E+00
  0.00000000E+00  1.00000000E+00  1.00000000E+00  1.00000000E+00  1.00000000E+00
  0.00000000E+00  0.00000000E+00  1.00000000E+00  0.00000000E+00  0.00000000E+00
Virial Ratio                               R      2.003467328293830E+00
SCF Energy                                 R     -2.826065121943099E+02
Total Energy                               R     -2.826065121943099E+02
S**2                                       R     -1.776356839400251E-14
S**2 after annihilation                    R      1.808331262509436E-12
RMS Density                                R      4.198124013920126E-09
Job Status                                 I                1
Nuclear derivative order                   I                0
External E-field                           R   N=          35
  0.00000000E+00  0.00000000E+00  0.00000000E+00  0.00000000E+00  0.00000000E+00
  0.00000000E+00  0.00000000E+00  0.00000000E+00  0.00000000E+00  0.00000000E+00
  0.00000000E+00  0.00000000E+00  0.00000000E+00  0.00000000E+00  0.00000000E+00
  0.00000000E+00  0.00000000E+00  0.00000000E+00  0.00000000E+00  0.00000000E+00
  0.00000000E+00  0.00000000E+00  0.00000000E+00  0.00000000E+00  0.00000000E+00
  0.00000000E+00  0.00000000E+00  0.00000000E+00  0.00000000E+00  0.00000000E+00
  0.00000000E+00  0.00000000E+00  0.00000000E+00  0.00000000E+00  0.00000000E+00
IOpCl                                      I                1
IROHF                                      I                0
Alpha Orbital Energies                     R   N=          85
 -2.06159786E+01 -2.05654679E+01 -1.55761516E+01 -1.13902487E+01 -1.13496229E+01
 -1.46725021E+00 -1.36339819E+00 -1.21226905E+00 -9.05111950E-01 -8.30339240E-01
 -6.96411467E-01 -6.87260788E-01 -6.51757880E-01 -6.43645171E-01 -6.19556832E-01
 -6.02066112E-01 -5.14429639E-01 -4.81972007E-01 -4.24255862E-01 -2.91853695E-01
  6.28194355E-03  2.10899154E-01  2.18336754E-01  2.51365877E-01  2.64830641E-01
  3.00884872E-01  3.07224478E-01  4.03514565E-01  4.90983131E-01  5.17950034E-01
  7.02061569E-01  7.28636860E-01  7.39143016E-01  8.06452715E-01  8.25978511E-01
  8.85509027E-01  9.64835783E-01  9.85708709E-01  9.99102571E-01  1.02734450E+00
  1.07097134E+00  1.08308420E+00  1.11188864E+00  1.15096616E+00  1.16680694E+00
  1.20070638E+00  1.20549377E+00  1.22387527E+00  1.25451379E+00  1.30366543E+00
  1.34105758E+00  1.40587099E+00  1.53086824E+00  1.59289556E+00  1.67872286E+00
  1.73998082E+00  1.77130055E+00  1.77564040E+00  1.77970358E+00  1.86441386E+00
  2.04918303E+00  2.08932127E+00  2.12701220E+00  2.15752633E+00  2.20104719E+00
  2.23844465E+00  2.33860922E+00  2.42710205E+00  2.45634556E+00  2.54269629E+00
  2.66680267E+00  2.70782427E+00  2.71122439E+00  2.80436719E+00  2.92020762E+00
  2.98120551E+00  3.00916621E+00  3.10445502E+00  3.28369129E+00  3.38365824E+00
  4.15027409E+00  4.17430459E+00  4.25400773E+00  4.47595936E+00  4.60674475E+00
Beta Orbital Energies                      R   N=          85
 -2.06159786E+01 -2.05654679E+01 -1.55761516E+01 -1.13902487E+01 -1.13496229E+01
 -1.46725021E+00 -1.36339819E+00 -1.21226905E+00 -9.05111950E-01 -8.30339240E-01
 -6.96411467E-01 -6.87260788E-01 -6.51757880E-01 -6.43645171E-01 -6.19556832E-01
 -6.02066112E-01 -5.14429639E-01 -4.81972007E-01 -4.24255862E-01 -2.91853695E-01
  6.28194355E-03  2.10899154E-01  2.18336754E-01  2.51365877E-01  2.64830641E-01
  3.00884872E-01  3.07224478E-01  4.03514565E-01  4.90983131E-01  5.17950034E-01
  7.02061569E-01  7.28636860E-01  7.39143016E-01  8.06452715E-01  8.25978511E-01
  8.85509027E-01  9.64835783E-01  9.85708709E-01  9.99102571E-01  1.02734450E+00
  1.07097134E+00  1.08308420E+00  1.11188864E+00  1.15096616E+00  1.16680694E+00
  1.20070638E+00  1.20549377E+00  1.22387527E+00  1.25451379E+00  1.30366543E+00
  1.34105758E+00  1.40587099E+00  1.53086824E+00  1.59289556E+00  1.67872286E+00
  1.73998082E+00  1.77130055E+00  1.77564040E+00  1.77970358E+00  1.86441386E+00
  2.04918303E+00  2.08932127E+00  2.12701220E+00  2.15752633E+00  2.20104719E+00
  2.23844465E+00  2.33860922E+00  2.42710205E+00  2.45634556E+00  2.54269629E+00
  2.66680267E+00  2.70782427E+00  2.71122439E+00  2.80436719E+00  2.92020762E+00
  2.98120551E+00  3.00916621E+00  3.10445502E+00  3.28369129E+00  3.38365824E+00
  4.15027409E+00  4.17430459E+00  4.25400773E+00  4.47595936E+00  4.60674475E+00
Alpha MO coefficients                      R   N=        7225
 -1.99345688E-06  4.32735332E-04  2.41422537E-04  1.17755288E-07 -1.70977219E-04
 -3.55622444E-05 -7.07076769E-05  8.50910811E-07  5.64531253E-04 -1.37279498E-04
 -6.30462149E-05 -5.22623459E-05  9.78905056E-08  8.63200658E-05 -2.43768322E-07
 -3.90272441E-04  4.68992540E-05 -4.67771344E-05  3.05525816E-08  3.31255879E-05
 -4.95313538E-04  3.16696142E-06 -4.58007402E-07  1.02940847E-04  3.71996122E-05
  7.56656480E-06  1.39835194E-05 -3.16746922E-08  5.90494501E-05  6.05499320E-08
  9.94613470E-01  2.11969863E-02 -1.21874118E-04 -1.92798568E-06  1.30731583E-03
  4.32139610E-03 -1.21371733E-04  2.31070952E-07 -5.59856641E-04 -4.18989053E-03
 -4.00222390E-03 -4.08949326E-03  1.40587173E-06 -3.55636355E-05  1.81601589E-07
  4.03224068E-04 -2.47817328E-04 -6.44456337E-06 -2.18892036E-05 -1.53833058E-05
 -1.98168513E-06 -5.42557660E-06  1.38004749E-04  2.33020961E-05  2.16149693E-05
  2.56176302E-05 -9.88994772E-06 -1.62217052E-05 -1.30008118E-05 -1.24102283E-06
  3.12645191E-07  1.18596849E-06 -4.92576640E-06 -2.61403304E-05 -4.59464144E-06
 -5.20006248E-06  2.04998695E-06  6.88039928E-06  6.14772694E-06  7.57356420E-07
  2.77309797E-07 -4.71294114E-05 -4.51568513E-05  2.27737696E-06  2.98713644E-06
  2.66035374E-06  6.53815844E-06  5.31617525E-06  1.54486725E-06  2.72280677E-06
  2.86225773E-06 -5.99724943E-06 -6.43162726E-06  1.06036862E-05 -1.50662299E-05
  3.17993738E-06  4.18461203E-04 -3.07000113E-05  6.99094037E-07 -2.00660747E-04
 -7.08587106E-04 -2.76850964E-05 -9.78928103E-07 -4.72229188E-04 -2.08186468E-05
  1.02627780E-05 -8.87252440E-04 -5.53371481E-07  2.73234408E-05  1.57394106E-07
  9.94686101E-01  2.10237275E-02  2.39984169E-05 -6.98180811E-07 -1.63915525E-03
  4.67490300E-03 -3.63853338E-06  2.81904884E-07 -1.07359052E-04 -3.99849320E-03
 -4.12761978E-03 -3.47767246E-03  2.23559049E-06 -2.22997422E-05  8.49733141E-07
  3.98770345E-04 -4.57187038E-05  6.71021718E-06 -9.16094517E-09 -4.35397890E-05
  1.81269335E-04 -6.54180777E-05  2.25955827E-07  6.76639102E-05  8.03833420E-05
 -7.02091187E-05 -1.03970103E-04 -1.67491136E-07  2.24783309E-05  5.03961412E-08
 -2.97162181E-05 -2.44449414E-05  2.95889809E-06  3.28575269E-06  6.80186790E-06
  8.11234435E-07 -2.90277061E-06 -3.05311155E-05 -5.29694660E-05 -3.05842718E-06
  2.89507710E-06  7.95646262E-06  6.42530296E-06  5.04913139E-06 -2.35018677E-06
 -4.42406622E-06  1.22888135E-06  5.45970986E-06  1.08071038E-05  1.91751230E-06
  3.89539314E-06 -4.29096855E-07  2.18858738E-06 -2.01681716E-06  3.38398895E-07
 -2.48046149E-06 -1.16359895E-05  5.20450285E-06  6.55430114E-06  2.47918801E-05
 -3.20916004E-06 -1.84964904E-06 -2.03702225E-06  5.23567991E-07  6.03311999E-07
 -3.07968315E-06  5.63798783E-06  1.46430653E-06 -1.36631723E-06 -1.19336864E-05
  2.17784512E-06 -1.10213975E-05 -1.02125793E-05 -3.53872878E-06 -1.22372655E-05
  2.68171713E-06  1.79938370E-04  1.32588113E-05 -1.14343360E-04  2.54027307E-05
  6.65608242E-06  4.81981493E-06  5.36669572E-07 -1.53774478E-06  7.93718842E-07
 -6.87136573E-06 -2.77296134E-05  6.07192124E-06  1.05158482E-06  3.75050075E-06
  1.62797913E-04 -5.84423449E-05 -5.90231338E-06 -4.71978731E-05 -2.01294442E-05
 -2.27002710E-05 -1.37392617E-05 -1.10937055E-07  1.17088850E-05  1.29851645E-06
  7.87129749E-06  3.92380451E-05 -2.84265532E-06  1.22500377E-06  3.88811654E-06
 -2.26085609E-04  5.60311912E-05 -5.52457838E-06 -4.96479493E-05  1.72972831E-05
  2.59666408E-05  1.72428611E-05  9.95746858E-07  5.74433490E-06 -5.79026958E-07
  1.10450802E-05 -1.20782421E-05 -5.01894891E-06  2.79947299E-04 -1.80188922E-04
  8.07235157E-05  1.23424457E-04  1.27818404E-03 -5.11517065E-04 -1.08989436E-04
  2.34058537E-04 -1.90519022E-04 -7.83915847E-05 -1.33317401E-04  6.26235390E-05
  4.65988034E-05 -1.81031676E-05 -5.98482130E-05 -3.95571090E-05 -1.29726203E-04
 -1.68786268E-04  9.94981613E-01  2.49825217E-02  5.25280493E-05 -1.42763593E-03
 -2.66290686E-04 -2.22707857E-03 -2.24397415E-04  1.03663104E-03  3.13727735E-04
 -3.49520362E-03 -3.25501076E-03 -3.44811431E-03  4.61907498E-05  1.90206158E-05
 -1.01399868E-05  2.74677975E-04  5.33416946E-04  2.72016222E-04  5.12581612E-04
  9.95877609E-01  2.46949820E-02  1.52817155E-03  6.30232287E-06  3.14400295E-04
 -2.89149461E-03  2.70868544E-04  1.28115918E-05  7.88507331E-04 -1.42290704E-03
 -2.42805109E-03 -6.39853965E-04  9.60455172E-07 -5.82735805E-04  1.69630908E-06
 -4.44868064E-04  3.41109932E-04  5.38809572E-05 -1.87634438E-07 -3.76043472E-04
 -1.45404136E-03 -4.01699883E-05 -8.00515994E-06  1.30970710E-03 -5.02111973E-05
  6.35142151E-05  7.45665863E-05 -8.54940206E-07 -4.47209007E-05  3.45937387E-06
 -1.46039728E-04  4.66550915E-04  9.69920062E-06  9.48895012E-07  9.94593241E-05
 -1.22123533E-03  8.56810261E-04 -4.79377345E-06 -1.11071223E-03 -5.60718534E-04
  3.31409878E-04 -5.13402287E-05  2.20356935E-06  3.99132626E-04 -7.62292471E-07
  2.43404604E-04  3.31027079E-04  1.97297431E-04 -1.23160971E-04 -1.21912878E-04
 -7.52872417E-06 -6.18241593E-05  8.84542087E-04  3.86960870E-04  6.64687254E-05
  3.39993860E-04 -1.21924399E-04 -1.53291393E-04 -1.04101749E-04  6.93961552E-06
  3.24799085E-05  1.29903756E-05 -3.04734794E-05 -8.09717061E-05 -3.61089609E-05
 -5.44122372E-05  1.76153957E-05  5.05253440E-05  1.09027010E-05 -8.58472101E-06
  1.38965685E-05 -3.98986306E-04 -1.97265312E-04  4.66897138E-05 -1.46583950E-04
  2.26307544E-05  4.30578651E-05  5.54760844E-05  2.79106085E-06 -1.08400248E-05
  2.98644716E-05 -2.45161852E-05  1.35339704E-05  2.98589341E-05  1.25502130E-04
 -3.16645454E-04 -5.40185752E-05  1.51639034E-04  2.27510621E-06  7.34491214E-05
 -1.84927628E-04 -1.16745943E-03 -1.77032387E-05 -9.84752221E-04 -1.89069371E-04
 -1.30385636E-04 -1.83407412E-04  2.66219183E-06 -4.75741958E-05  1.35819941E-06
 -2.92526993E-05 -1.48636037E-04 -4.83479436E-05 -1.13950464E-06 -1.71601336E-05
  1.08102867E-03  4.44107386E-04  7.10163633E-06 -2.72569824E-04 -9.82969015E-05
 -7.64537668E-05 -3.70369318E-05 -2.01166740E-07 -1.02532034E-04 -1.20580393E-06
 -6.70900059E-06 -7.26157551E-05 -2.81819288E-05 -4.38469450E-07 -4.72159780E-05
  4.01196082E-04  1.49353710E-04  4.59019170E-06  4.67696286E-04 -6.40969992E-05
 -3.29286902E-05  7.57421981E-05 -1.09101240E-06 -3.45914524E-05  5.35838511E-07
 -1.29616498E-04  9.45716507E-05  9.95932762E-01  2.60353427E-02 -1.18422007E-04
  1.48981697E-04  3.79337654E-04 -1.10600036E-02  5.40065057E-04 -4.63238026E-05
  4.20535481E-04 -1.74344255E-03 -1.43144490E-03 -1.59099093E-03 -7.93247246E-05
 -3.73130191E-04 -2.98991476E-05  5.35468589E-05  2.43741558E-03  4.02686981E-05
  2.34604384E-03 -2.21535194E-04  8.31431357E-05 -7.60755338E-05 -1.93199307E-05
  3.40569426E-05  2.01055062E-03  6.58623363E-04 -1.38018328E-04 -5.31414813E-04
 -4.62052051E-04 -1.33161127E-04 -1.84051970E-04  1.44556768E-04  2.52009024E-04
 -3.80527363E-05 -4.37327798E-05  2.72335514E-04 -3.50185808E-05  3.46258328E-04
 -1.12870731E-01  2.19998384E-01  9.11615162E-02  7.98170031E-05  5.69553252E-02
  3.76548419E-02 -1.25394914E-02 -1.88607559E-04 -7.87709415E-03  2.64052386E-03
 -2.00803027E-02  1.52043434E-02 -3.07317831E-06 -1.41344780E-02 -1.48050459E-05
 -1.11770269E-01  2.47548495E-01  1.50847026E-02 -1.14789623E-04 -9.41704616E-02
  2.08869905E-01  1.15507139E-02 -9.82010629E-05 -3.24005576E-02 -1.65311759E-03
 -3.85508806E-04  1.29468863E-02  6.80821755E-06 -3.34992172E-03  3.79455578E-06
 -1.57510914E-01  3.57958656E-01 -2.78092709E-02 -2.84787848E-04  8.73508754E-02
  3.17692139E-01 -1.01800807E-02 -1.54753117E-04  4.72933119E-02  1.70333946E-02
 -2.45512373E-04  1.52702066E-02 -7.75185769E-05 -2.11674296E-04 -6.26620417E-05
  8.90864822E-02 -6.55590642E-03 -3.62302669E-04  1.62466233E-03  1.01461157E-03
  1.18688413E-04  8.41587616E-04 -2.22522508E-03 -2.54781875E-04 -3.30121082E-04
 -1.34183835E-03  3.03923880E-04  3.09566040E-04  2.50407027E-04  2.69022123E-05
  6.44092960E-05 -4.29907963E-05  1.87474501E-04  1.11679247E-04  2.07116707E-04
  4.95869003E-05 -2.38716725E-04  9.70514727E-05  1.18191815E-04 -7.41193350E-05
 -5.96352167E-05  2.22976589E-03  7.58208624E-04 -3.71730890E-04  1.28368598E-04
 -3.71277458E-06 -1.36614924E-04 -1.47339585E-04 -3.09537396E-05  1.67500142E-05
 -3.87593604E-05  7.75377682E-05 -3.92377153E-05  4.72413022E-05 -4.23207408E-04
 -4.63165384E-02  9.25675565E-02 -7.35858272E-02  4.27614425E-05  2.17208606E-01
  1.64765544E-02  1.05565256E-03 -1.28737449E-04 -1.28368064E-02 -3.05128424E-02
 -7.87100763E-03  2.96997087E-02 -2.54675438E-05  1.61852854E-02  2.34878425E-05
 -1.66055069E-01  3.64972082E-01 -5.49430094E-03 -1.65981216E-04 -1.07452761E-01
  3.33281659E-01 -1.08463315E-03 -1.91882595E-04 -3.70762495E-02 -1.68877494E-03
 -2.24190864E-03  1.34388991E-02  2.97712854E-05  9.07576205E-04  9.67353137E-06
  1.33534190E-01 -3.03581672E-01 -4.63623211E-03  2.57237855E-04 -4.23156826E-02
 -2.88438349E-01 -7.47923910E-03  2.44766337E-04 -1.95630263E-02 -1.14058814E-02
 -1.14241549E-04 -6.96832937E-03  5.78871942E-05 -8.10130419E-03  5.84367804E-05
 -7.94412879E-02  6.91729753E-03 -7.35841474E-05  5.56486629E-04  6.26685047E-04
  1.17773314E-04  7.99063258E-05  2.86169387E-04 -4.04040810E-03 -4.58571532E-05
  1.90700759E-03  3.99115023E-04  1.09530174E-04  1.52515108E-04 -1.06722396E-04
 -2.12124650E-04  1.09762097E-04  2.74386276E-04  1.06897105E-03  1.04255420E-04
  8.16237193E-05 -5.97343244E-05  9.71005789E-04  1.39128230E-05 -1.46182980E-04
  1.97824481E-06 -4.24627990E-03 -5.58203001E-04  1.16066365E-03  1.04308786E-03
  9.86218869E-05  2.28929466E-04  1.95797504E-04  6.89882632E-05  5.94145681E-05
 -1.05276907E-04  4.33497696E-04  4.64092318E-05  4.97777225E-05  1.01019463E-03
 -7.77687896E-04  1.36053193E-03 -2.50324418E-03 -7.73029012E-05 -2.39657065E-03
  4.02038888E-03 -3.66698726E-03  1.44611595E-04  1.13999759E-03  1.13037540E-04
 -3.14604822E-05 -1.01075091E-06  8.91549707E-06  3.76928228E-04  9.28877689E-06
  9.35045721E-04 -1.51351420E-03 -1.54902540E-04  9.19765983E-06  4.29247120E-04
 -4.70470741E-03  8.81932477E-04 -6.02093266E-05  1.12814068E-03  2.15918365E-04
  2.50113557E-04  4.42221946E-05 -3.01472223E-06 -5.05057840E-05  9.50798820E-06
  3.40158014E-04 -1.37265790E-03 -3.40018691E-04  3.48999645E-06 -5.39000512E-04