 Entering Gaussian System, Link 0=g16
 Input=1.80_T1_ROHF_2e2o.com
 Output=1.80_T1_ROHF_2e2o.log
 Initial command:
 /opt/g16/l1.exe "/scratch/Grace/g03/Gau-46191.inp" -scrdir="/scratch/Grace/g03/"
 Entering Link 1 = /opt/g16/l1.exe PID=     46192.
  
 Copyright (c) 1988,1990,1992,1993,1995,1998,2003,2009,2016,
            Gaussian, Inc.  All Rights Reserved.
  
 This is part of the Gaussian(R) 16 program.  It is based on
 the Gaussian(R) 09 system (copyright 2009, Gaussian, Inc.),
 the Gaussian(R) 03 system (copyright 2003, Gaussian, Inc.),
 the Gaussian(R) 98 system (copyright 1998, Gaussian, Inc.),
 the Gaussian(R) 94 system (copyright 1995, Gaussian, Inc.),
 the Gaussian 92(TM) system (copyright 1992, Gaussian, Inc.),
 the Gaussian 90(TM) system (copyright 1990, Gaussian, Inc.),
 the Gaussian 88(TM) system (copyright 1988, Gaussian, Inc.),
 the Gaussian 86(TM) system (copyright 1986, Carnegie Mellon
 University), and the Gaussian 82(TM) system (copyright 1983,
 Carnegie Mellon University). Gaussian is a federally registered
 trademark of Gaussian, Inc.
  
 This software contains proprietary and confidential information,
 including trade secrets, belonging to Gaussian, Inc.
  
 This software is provided under written license and may be
 used, copied, transmitted, or stored only in accord with that
 written license.
  
 The following legend is applicable only to US Government
 contracts under FAR:
  
                    RESTRICTED RIGHTS LEGEND
  
 Use, reproduction and disclosure by the US Government is
 subject to restrictions as set forth in subparagraphs (a)
 and (c) of the Commercial Computer Software - Restricted
 Rights clause in FAR 52.227-19.
  
 Gaussian, Inc.
 340 Quinnipiac St., Bldg. 40, Wallingford CT 06492
  
  
 ---------------------------------------------------------------
 Warning -- This program may not be used in any manner that
 competes with the business of Gaussian, Inc. or will provide
 assistance to any competitor of Gaussian, Inc.  The licensee
 of this program is prohibited from giving any competitor of
 Gaussian, Inc. access to this program.  By using this program,
 the user acknowledges that Gaussian, Inc. is engaged in the
 business of creating and licensing software in the field of
 computational chemistry and represents and warrants to the
 licensee that it is not a competitor of Gaussian, Inc. and that
 it will not use this program in any manner prohibited above.
 ---------------------------------------------------------------
  

 Cite this work as:
 Gaussian 16, Revision A.03,
 M. J. Frisch, G. W. Trucks, H. B. Schlegel, G. E. Scuseria, 
 M. A. Robb, J. R. Cheeseman, G. Scalmani, V. Barone, 
 G. A. Petersson, H. Nakatsuji, X. Li, M. Caricato, A. V. Marenich, 
 J. Bloino, B. G. Janesko, R. Gomperts, B. Mennucci, H. P. Hratchian, 
 J. V. Ortiz, A. F. Izmaylov, J. L. Sonnenberg, D. Williams-Young, 
 F. Ding, F. Lipparini, F. Egidi, J. Goings, B. Peng, A. Petrone, 
 T. Henderson, D. Ranasinghe, V. G. Zakrzewski, J. Gao, N. Rega, 
 G. Zheng, W. Liang, M. Hada, M. Ehara, K. Toyota, R. Fukuda, 
 J. Hasegawa, M. Ishida, T. Nakajima, Y. Honda, O. Kitao, H. Nakai, 
 T. Vreven, K. Throssell, J. A. Montgomery, Jr., J. E. Peralta, 
 F. Ogliaro, M. J. Bearpark, J. J. Heyd, E. N. Brothers, K. N. Kudin, 
 V. N. Staroverov, T. A. Keith, R. Kobayashi, J. Normand, 
 K. Raghavachari, A. P. Rendell, J. C. Burant, S. S. Iyengar, 
 J. Tomasi, M. Cossi, J. M. Millam, M. Klene, C. Adamo, R. Cammi, 
 J. W. Ochterski, R. L. Martin, K. Morokuma, O. Farkas, 
 J. B. Foresman, and D. J. Fox, Gaussian, Inc., Wallingford CT, 2016.
 
 ******************************************
 Gaussian 16:  ES64L-G16RevA.03 25-Dec-2016
                29-Mar-2020 
 ******************************************
 %chk=1.80_T1_ROHF_2e2o.chk
 %mem=600MW
 %nprocshared=4
 Will use up to    4 processors via shared memory.
 ----------------------------------------------------------------------
 #p CASSCF(2,2)/6-31G(d) Guess=read Nosymm SCF=(NoVarAcc, NoIncFock) po
 p=regular
 ----------------------------------------------------------------------
 1/38=1,172=1/1;
 2/12=2,15=1,17=6,18=5,40=1/2;
 3/5=1,6=6,7=1,25=1,116=101/1,2,3;
 4/5=1,17=2,18=2,43=1/1,5;
 5/5=100002,17=1000000,38=6/10;
 6/28=1/1;
 99/5=1,9=1/99;
 Leave Link    1 at Sun Mar 29 23:30:54 2020, MaxMem=   629145600 cpu:               0.2 elap:               0.1
 (Enter /opt/g16/l101.exe)
 ----------------------
 2 electrons, 2 orbital
 ----------------------
 Symbolic Z-matrix:
 Charge =  0 Multiplicity = 1
 C
 O                    1    B1
 O                    1    B2       2    A1
 H                    3    B3       1    A2       2    D1       0
 C                    1    B4       2    A3       3    D2       0
 H                    5    B5       1    A4       2    D3       0
 H                    5    B6       1    A5       2    D4       0
 N                    5    B7       1    A6       2    D5       0
 H                    8    B8       5    A7       1    D6       0
 H                    8    B9       5    A8       1    D7       0
       Variables:
  B1                    1.18694                  
  B2                    1.32859                  
  B3                    0.95245                  
  B4                    1.8                      
  B5                    1.08274                  
  B6                    1.09291                  
  B7                    1.44298                  
  B8                    1.00006                  
  B9                    1.00058                  
  A1                  122.88609                  
  A2                  108.26804                  
  A3                  125.15773                  
  A4                  108.61259                  
  A5                  105.73928                  
  A6                  110.21098                  
  A7                  111.02372                  
  A8                  110.69023                  
  D1                    0.23997                  
  D2                  177.02737                  
  D3                  142.70224                  
  D4                 -103.08273                  
  D5                   21.8015                   
  D6                 -166.73799                  
  D7                  -46.08017                  
 
 ITRead=  0  0  0  0  0  0  0  0  0  0
 MicOpt= -1 -1 -1 -1 -1 -1 -1 -1 -1 -1
 NAtoms=     10 NQM=       10 NQMF=       0 NMMI=      0 NMMIF=      0
                NMic=       0 NMicF=      0.
                    Isotopes and Nuclear Properties:
 (Nuclear quadrupole moments (NQMom) in fm**2, nuclear magnetic moments (NMagM)
  in nuclear magnetons)

  Atom         1           2           3           4           5           6           7           8           9          10
 IAtWgt=          12          16          16           1          12           1           1          14           1           1
 AtmWgt=  12.0000000  15.9949146  15.9949146   1.0078250  12.0000000   1.0078250   1.0078250  14.0030740   1.0078250   1.0078250
 NucSpn=           0           0           0           1           0           1           1           2           1           1
 AtZEff=  -0.0000000  -0.0000000  -0.0000000  -0.0000000  -0.0000000  -0.0000000  -0.0000000  -0.0000000  -0.0000000  -0.0000000
 NQMom=    0.0000000   0.0000000   0.0000000   0.0000000   0.0000000   0.0000000   0.0000000   2.0440000   0.0000000   0.0000000
 NMagM=    0.0000000   0.0000000   0.0000000   2.7928460   0.0000000   2.7928460   2.7928460   0.4037610   2.7928460   2.7928460
 AtZNuc=   6.0000000   8.0000000   8.0000000   1.0000000   6.0000000   1.0000000   1.0000000   7.0000000   1.0000000   1.0000000
 Leave Link  101 at Sun Mar 29 23:30:54 2020, MaxMem=   629145600 cpu:               0.5 elap:               0.1
 (Enter /opt/g16/l202.exe)
                          Input orientation:                          
 ---------------------------------------------------------------------
 Center     Atomic      Atomic             Coordinates (Angstroms)
 Number     Number       Type             X           Y           Z
 ---------------------------------------------------------------------
      1          6           0        0.000000    0.000000    0.000000
      2          8           0        0.000000    0.000000    1.186941
      3          8           0        1.115684    0.000000   -0.721384
      4          1           0        1.857481   -0.003788   -0.123988
      5          6           0       -1.469646   -0.076317   -1.036493
      6          1           0       -1.314643    0.554351   -1.902843
      7          1           0       -1.521635   -1.105025   -1.401879
      8          7           0       -2.625757    0.367240   -0.295640
      9          1           0       -3.471145    0.132717   -0.775671
     10          1           0       -2.647133   -0.053937    0.611727
 ---------------------------------------------------------------------
                    Distance matrix (angstroms):
                    1          2          3          4          5
     1  C    0.000000
     2  O    1.186941   0.000000
     3  O    1.328588   2.210533   0.000000
     4  H    1.861619   2.273497   0.952449   0.000000
     5  C    1.800000   2.666335   2.605580   3.450753   0.000000
     6  H    2.378320   3.403287   2.758558   3.679432   1.082742
     7  H    2.345574   3.199756   2.939320   3.776791   1.092909
     8  N    2.667745   3.037682   3.783451   4.501838   1.442982
     9  H    3.559231   3.989776   4.589070   5.370064   2.029217
    10  H    2.717432   2.709446   3.992354   4.564575   2.025736
                    6          7          8          9         10
     6  H    0.000000
     7  H    1.745663   0.000000
     8  N    2.082578   2.147187   0.000000
     9  H    2.469573   2.392641   1.000056   0.000000
    10  H    2.910087   2.534984   1.000580   1.624410   0.000000
 Symmetry turned off by external request.
 Stoichiometry    C2H5NO2
 Framework group  C1[X(C2H5NO2)]
 Deg. of freedom    24
 Full point group                 C1      NOp   1
 Rotational constants (GHZ):          10.1001766           3.3902551           2.6082472
 Leave Link  202 at Sun Mar 29 23:30:54 2020, MaxMem=   629145600 cpu:               0.1 elap:               0.0
 (Enter /opt/g16/l301.exe)
 Standard basis: 6-31G(d) (6D, 7F)
 Ernie: Thresh=  0.10000D-02 Tol=  0.10000D-05 Strict=F.
    85 basis functions,   160 primitive gaussians,    85 cartesian basis functions
    20 alpha electrons       20 beta electrons
       nuclear repulsion energy       173.5049209130 Hartrees.
 IExCor=    0 DFT=F Ex=HF Corr=None ExCW=0 ScaHFX=  1.000000
 ScaDFX=  1.000000  1.000000  1.000000  1.000000 ScalE2=  1.000000  1.000000
 IRadAn=      5 IRanWt=     -1 IRanGd=            0 ICorTp=0 IEmpDi=  4
 NAtoms=   10 NActive=   10 NUniq=   10 SFac= 1.00D+00 NAtFMM=   60 NAOKFM=F Big=F
 Integral buffers will be    131072 words long.
 Regular integral format.
 Two-electron integral symmetry is turned off.
 Leave Link  301 at Sun Mar 29 23:30:55 2020, MaxMem=   629145600 cpu:               0.3 elap:               0.1
 (Enter /opt/g16/l302.exe)
 NPDir=0 NMtPBC=     1 NCelOv=     1 NCel=       1 NClECP=     1 NCelD=      1
         NCelK=      1 NCelE2=     1 NClLst=     1 CellRange=     0.0.
 One-electron integrals computed using PRISM.
 NBasis=    85 RedAO= T EigKep=  4.45D-03  NBF=    85
 NBsUse=    85 1.00D-06 EigRej= -1.00D+00 NBFU=    85
 Leave Link  302 at Sun Mar 29 23:30:55 2020, MaxMem=   629145600 cpu:               0.6 elap:               0.2
 (Enter /opt/g16/l303.exe)
 DipDrv:  MaxL=1.
 Leave Link  303 at Sun Mar 29 23:30:56 2020, MaxMem=   629145600 cpu:               0.1 elap:               0.3
 (Enter /opt/g16/l401.exe)
 Initial guess from the checkpoint file:  "1.80_T1_ROHF_2e2o.chk"
 B after Tr=     6.072559   -0.156145    2.408853
         Rot=    0.994660   -0.014038   -0.099342    0.024206 Ang= -11.85 deg.
 Guess basis will be translated and rotated to current coordinates.
 JPrj=2 DoOrth=T DoCkMO=T.
 Leave Link  401 at Sun Mar 29 23:30:56 2020, MaxMem=   629145600 cpu:               0.5 elap:               0.1
 (Enter /opt/g16/l405.exe)
          Truncation Level=               99999
          a=  1          b=  0          c=  1
          a=N/2 - s   b=2s   c=n- (a+b)
          no. active orbitals (n)  2
          no. active ELECTRONS (N)=  2
                                                  IRREPS TO BE RETAINED = 1
                                                  GROUP IRREP. MULT. TABLE
                                                      1
                                                  IRREP. LABELS FOR ORBITALS
                                                   1 1
          BOTTOM WEIGHT=  2     TOP WEIGHT=  4
          Configuration         1 Symmetry 1 10
          Configuration         2 Symmetry 1 ab
          Configuration         3 Symmetry 1 01
          NO OF BASIS FUNCTIONS =         3 NO TO BE DELETED =    0
 CI Matrix Elements calculated here
          NO. OF CONFIGURATIONS IN REFERENCE SPACE =    1
                                   SECONDARY SPACE =    3
                                   TERTIARY SPACE =    3
          NO. OF ORBITALS =    2
          NO. OF ELECTRONS =    2
          NO. OF WEIGHTS =    3
          REFERENCE STATE CONFIGURATIONS ARE:     0
          NO. OF CORE ORBITALS =    0
          OPTION:  NON-DIAGONAL HOLE LINE INTERACTIONS INCLUDED
 Len28=          98 LenMCI=         101.
 Leave Link  405 at Sun Mar 29 23:30:58 2020, MaxMem=   629145600 cpu:               4.2 elap:               1.1
 (Enter /opt/g16/l510.exe)
 Enter MCSCF program.
 NBasis=   85 NCore=   19 NVal=    2 NVirt=   64 IFrame=0 Acc=  1.00D-08.
  Memory needed for Incore Integrals:                 7353945
  Integrals KEPT IN MEMORY
 IBUJAK length=                   29240
 Integral file not found: evaluate integrals 
 FoFCou: FMM=F IPFlag=           0 FMFlag=           0 FMFlg1=           0
         NFxFlg=           0 DoJE=F BraDBF=F KetDBF=F FulRan=T
         wScrn=  0.000000 ICntrl=       600 IOpCl=  0 I1Cent=           0 NGrid=           0
         NMat0=    1 NMatS0=      1 NMatT0=    0 NMatD0=    1 NMtDS0=    0 NMtDT0=    0
 Symmetry not used in FoFCou.
 Defining IBUGAM
 2ND ORD PT ENERGY     CV   -0.013212   CU   -0.048848   UV   -0.027280
 TOTAL                    -282.809573
 WARNING! : large rotation  I  J  =                       21
                       20
 Step scaled by    0.1381642908409106     
 ITN=  1 MaxIt= 64 E=   -282.7202333490 DE=-2.83D+02 Acc= 1.00D-08 Lan=  0
 ITN=  2 MaxIt= 64 E=   -282.7413966120 DE=-2.12D-02 Acc= 1.00D-08 Lan=  0
 ITN=  3 MaxIt= 64 E=   -282.7916904708 DE=-5.03D-02 Acc= 1.00D-08 Lan=  0
 ITN=  4 MaxIt= 64 E=   -282.8119596352 DE=-2.03D-02 Acc= 1.00D-08 Lan=  0
 ITN=  5 MaxIt= 64 E=   -282.8157468555 DE=-3.79D-03 Acc= 1.00D-08 Lan=  0
 ITN=  6 MaxIt= 64 E=   -282.8174398483 DE=-1.69D-03 Acc= 1.00D-08 Lan=  0
 ITN=  7 MaxIt= 64 E=   -282.8189928496 DE=-1.55D-03 Acc= 1.00D-08 Lan=  0
 ITN=  8 MaxIt= 64 E=   -282.8195749724 DE=-5.82D-04 Acc= 1.00D-08 Lan=  0
 ITN=  9 MaxIt= 64 E=   -282.8197040234 DE=-1.29D-04 Acc= 1.00D-08 Lan=  0
 ITN= 10 MaxIt= 64 E=   -282.8197305676 DE=-2.65D-05 Acc= 1.00D-08 Lan=  0
 ITN= 11 MaxIt= 64 E=   -282.8197514242 DE=-2.09D-05 Acc= 1.00D-08 Lan=  0
 ITN= 12 MaxIt= 64 E=   -282.8197544309 DE=-3.01D-06 Acc= 1.00D-08 Lan=  0
 ITN= 13 MaxIt= 64 E=   -282.8197553390 DE=-9.08D-07 Acc= 1.00D-08 Lan=  0
 ITN= 14 MaxIt= 64 E=   -282.8197557536 DE=-4.15D-07 Acc= 1.00D-08 Lan=  0
 ITN= 15 MaxIt= 64 E=   -282.8197559664 DE=-2.13D-07 Acc= 1.00D-08 Lan=  0
 ITN= 16 MaxIt= 64 E=   -282.8197560804 DE=-1.14D-07 Acc= 1.00D-08 Lan=  0
 ITN= 17 MaxIt= 64 E=   -282.8197561428 DE=-6.24D-08 Acc= 1.00D-08 Lan=  0
 ITN= 18 MaxIt= 64 E=   -282.8197561772 DE=-3.44D-08 Acc= 1.00D-08 Lan=  0
 ITN= 19 MaxIt= 64 E=   -282.8197561963 DE=-1.91D-08 Acc= 1.00D-08 Lan=  0
 ITN= 20 MaxIt= 64 E=   -282.8197562069 DE=-1.06D-08 Acc= 1.00D-08 Lan=  0
 ITN= 21 MaxIt= 64 E=   -282.8197562129 DE=-5.92D-09 Acc= 1.00D-08 Lan=  0
 ... Do an extra-iteration for final printing.


                    EIGENVALUES AND  EIGENVECTORS OF CI MATRIX



   ( 1)     EIGENVALUE   -282.8197562    
 (    1) 0.9900429 (    3)-0.1407660 (    2) 0.0000003 (
 Final one electron symbolic density matrix:
                1             2 
      1  0.196037D+01
      2  0.757388D-06  0.396301D-01
 MCSCF converged.
 Leave Link  510 at Sun Mar 29 23:31:12 2020, MaxMem=   629145600 cpu:              54.5 elap:              13.7
 (Enter /opt/g16/l601.exe)
 Copying SCF densities to generalized density rwf, IOpCl= 0 IROHF=3.

 **********************************************************************

            Population analysis using the SCF density.

 **********************************************************************

 Alpha  occ. eigenvalues --    0.00000   0.00000   0.00000   0.00000   0.00000
 Alpha  occ. eigenvalues --    0.00000   0.00000   0.00000   0.00000   0.00000
 Alpha  occ. eigenvalues --    0.00000   0.00000   0.00000   0.00000   0.00000
 Alpha  occ. eigenvalues --    0.00000   0.00000   0.00000   0.00000   0.00000
 Alpha virt. eigenvalues --    0.00000   0.00000   0.00000   0.00000   0.00000
 Alpha virt. eigenvalues --    0.00000   0.00000   0.00000   0.00000   0.00000
 Alpha virt. eigenvalues --    0.00000   0.00000   0.00000   0.00000   0.00000
 Alpha virt. eigenvalues --    0.00000   0.00000   0.00000   0.00000   0.00000
 Alpha virt. eigenvalues --    0.00000   0.00000   0.00000   0.00000   0.00000
 Alpha virt. eigenvalues --    0.00000   0.00000   0.00000   0.00000   0.00000
 Alpha virt. eigenvalues --    0.00000   0.00000   0.00000   0.00000   0.00000
 Alpha virt. eigenvalues --    0.00000   0.00000   0.00000   0.00000   0.00000
 Alpha virt. eigenvalues --    0.00000   0.00000   0.00000   0.00000   0.00000
 Alpha virt. eigenvalues --    0.00000   0.00000   0.00000   0.00000   0.00000
 Alpha virt. eigenvalues --    0.00000   0.00000   0.00000   0.00000   0.00000
 Alpha virt. eigenvalues --    0.00000   0.00000   0.00000   0.00000   0.00000
 Alpha virt. eigenvalues --    0.00000   0.00000   0.00000   0.00000   0.00000
     Molecular Orbital Coefficients:
                          16        17        18        19        20
                           O         O         O         O         O
     Eigenvalues --     0.00000   0.00000   0.00000   0.00000   0.00000
   1 1   C  1S          0.00017   0.01651  -0.00100   0.00191  -0.08917
   2        2S         -0.00243  -0.03523   0.00252  -0.00627   0.19853
   3        2PX         0.00045   0.04689  -0.00402   0.00514  -0.29989
   4        2PY         0.03208   0.00413   0.16521  -0.00596  -0.00312
   5        2PZ        -0.02317   0.10551  -0.00455   0.00224  -0.22680
   6        3S          0.01079  -0.00387   0.00377  -0.00056   0.28525
   7        3PX        -0.00107   0.08115  -0.00945   0.00580  -0.09078
   8        3PY         0.02102   0.00229   0.09385   0.00103  -0.00401
   9        3PZ        -0.01803  -0.01779   0.00006   0.02262  -0.09750
  10        4XX         0.00528  -0.01655   0.00112  -0.00122   0.01286
  11        4YY         0.00036   0.00192  -0.00012   0.00047  -0.00142
  12        4ZZ        -0.00485   0.01333  -0.00050  -0.00072  -0.00198
  13        4XY         0.00730  -0.00056  -0.01459   0.00266   0.00142
  14        4XZ        -0.00566   0.04493  -0.00190   0.00094   0.03511
  15        4YZ         0.00191   0.00180   0.04658   0.00288   0.00087
  16 2   O  1S         -0.00392   0.00336  -0.00042   0.00052   0.01510
  17        2S          0.00758  -0.01195   0.00220   0.00249  -0.03657
  18        2PX        -0.01231   0.55776  -0.02249   0.01315   0.08424
  19        2PY         0.03433   0.01862   0.46180   0.01128   0.00323
  20        2PZ         0.03488  -0.10947   0.00488   0.00255   0.07182
  21        3S          0.02723  -0.01532  -0.00068  -0.01970  -0.03830
  22        3PX        -0.00701   0.40566  -0.01514   0.00737   0.10230
  23        3PY         0.02162   0.01493   0.35105   0.01232   0.00398
  24        3PZ         0.01872  -0.06936   0.00353   0.00762   0.05811
  25        4XX        -0.00024  -0.00164   0.00057   0.00137   0.00090
  26        4YY         0.00007  -0.00309   0.00004   0.00134   0.00245
  27        4ZZ        -0.00194   0.00488   0.00031   0.00049  -0.00687
  28        4XY         0.00052  -0.00045   0.00015  -0.00055   0.00003
  29        4XZ         0.00056  -0.02876   0.00117  -0.00081   0.00331
  30        4YZ        -0.00285  -0.00117  -0.03424  -0.00054  -0.00028
  31 3   O  1S         -0.00661  -0.00956   0.00032  -0.00047   0.02624
  32        2S          0.01814   0.03148  -0.00172   0.00069  -0.05129
  33        2PX        -0.03726   0.06436  -0.00338   0.00189   0.07662
  34        2PY         0.11131  -0.01532  -0.40292   0.02719   0.00121
  35        2PZ        -0.01649  -0.29940   0.01015  -0.00459  -0.01197
  36        3S          0.01596  -0.02154   0.00363   0.00727  -0.17771
  37        3PX        -0.01993   0.05663  -0.00276  -0.00033   0.08335
  38        3PY         0.08245  -0.01269  -0.33668   0.02004   0.00269
  39        3PZ        -0.01234  -0.23916   0.00940  -0.00519  -0.01054
  40        4XX         0.00024   0.00565  -0.00049  -0.00002   0.01180
  41        4YY         0.00158   0.00876  -0.00021   0.00018   0.00313
  42        4ZZ        -0.00109  -0.01257   0.00013  -0.00043  -0.00041
  43        4XY        -0.00128   0.00013   0.00106   0.00058  -0.00017
  44        4XZ        -0.00287   0.00068   0.00004   0.00003   0.00706
  45        4YZ         0.00638  -0.00054  -0.01742   0.00167   0.00012
  46 4   H  1S         -0.01945  -0.05537   0.00192  -0.00122   0.03676
  47        2S         -0.01063   0.01507   0.00005  -0.00366   0.07131
  48 5   C  1S         -0.00092  -0.00924   0.00005   0.00773  -0.05730
  49        2S          0.00913   0.01689   0.00199  -0.02123   0.11060
  50        2PX        -0.20572   0.00420  -0.00474   0.04708   0.28363
  51        2PY        -0.19381  -0.00501  -0.03146  -0.17317   0.03451
  52        2PZ         0.27402   0.03288   0.00593   0.00833   0.22779
  53        3S         -0.04157   0.05749  -0.01207   0.01397   0.18479
  54        3PX        -0.08579   0.03162   0.00442   0.01799   0.15613
  55        3PY        -0.11956   0.00345  -0.01675  -0.08610   0.02918
  56        3PZ         0.13200   0.03844  -0.01738   0.01429   0.14902
  57        4XX         0.01921   0.00075   0.00011  -0.01250   0.01879
  58        4YY        -0.00164   0.00017   0.00217   0.02367  -0.01160
  59        4ZZ        -0.02047  -0.00123  -0.00179  -0.01034   0.00155
  60        4XY        -0.00799  -0.00054   0.00156  -0.01357   0.00276
  61        4XZ        -0.00537  -0.00381   0.00097   0.00843   0.02399
  62        4YZ         0.02515   0.00149   0.00393   0.02441  -0.00028
  63 6   H  1S         -0.23366  -0.01123  -0.01742  -0.10652  -0.03585
  64        2S         -0.17432  -0.01020  -0.03360  -0.11681  -0.05590
  65 7   H  1S          0.06900   0.00235   0.02082   0.14439  -0.04438
  66        2S          0.05381  -0.00099   0.02587   0.17678  -0.06973
  67 8   N  1S          0.00587  -0.00409   0.00165  -0.05071   0.01202
  68        2S         -0.01552   0.00744  -0.00876   0.12110  -0.02316
  69        2PX         0.13687   0.03829  -0.00896   0.02236  -0.04646
  70        2PY        -0.12174  -0.02431  -0.01317   0.52986  -0.00631
  71        2PZ        -0.26850   0.02689  -0.00577   0.04076  -0.00229
  72        3S         -0.01797   0.02547   0.01428   0.21786  -0.06586
  73        3PX         0.08988   0.00734   0.01029   0.01494  -0.06568
  74        3PY        -0.07637  -0.02529  -0.00910   0.48418  -0.01392
  75        3PZ        -0.17623   0.02166  -0.00040   0.03848  -0.01074
  76        4XX         0.00559  -0.00209  -0.00076   0.00815   0.01036
  77        4YY         0.00589   0.00144  -0.00078  -0.02252   0.00007
  78        4ZZ        -0.01527  -0.00057  -0.00210   0.00490  -0.00652
  79        4XY        -0.01200  -0.00194   0.00005  -0.00416   0.00248
  80        4XZ        -0.00148  -0.00300   0.00057   0.00183   0.00520
  81        4YZ         0.02329  -0.00229   0.00108  -0.00089  -0.00030
  82 9   H  1S          0.01853  -0.02376   0.00682  -0.04965   0.03439
  83        2S          0.01131  -0.01558   0.01128  -0.03487   0.04865
  84 10  H  1S         -0.13948   0.01714  -0.00415  -0.06705  -0.01755
  85        2S         -0.09141  -0.02800  -0.00878  -0.05051  -0.03375
                          21        22        23        24        25
                           V         V         V         V         V
     Eigenvalues --     0.00000   0.00000   0.00000   0.00000   0.00000
   1 1   C  1S          0.11078   0.00015   0.00328  -0.00695   0.00549
   2        2S         -0.48923  -0.01230   0.03753   0.04720   0.04624
   3        2PX         0.50691   0.00282   0.01871  -0.09473   0.00308
   4        2PY         0.00405   0.46895   0.10716   0.01481  -0.00600
   5        2PZ         0.37847   0.00561  -0.02423  -0.00716  -0.01639
   6        3S         -0.26800   0.04141  -0.30749  -0.02637  -0.17499
   7        3PX         0.05425   0.00941  -0.04259  -0.06695  -0.10830
   8        3PY         0.00105   0.65788   0.17561   0.02914   0.01343
   9        3PZ         0.06847  -0.03803  -0.02650  -0.06155   0.13499
  10        4XX        -0.00030   0.00253  -0.01388   0.01055   0.00065
  11        4YY         0.04110  -0.00130   0.00271   0.00083   0.00047
  12        4ZZ         0.03447  -0.00236   0.01059  -0.00764   0.01164
  13        4XY         0.00033  -0.00853  -0.00043   0.00037   0.00084
  14        4XZ        -0.08928   0.00022   0.00026   0.00513   0.00524
  15        4YZ         0.00046  -0.02210  -0.00337  -0.00043   0.00107
  16 2   O  1S         -0.01011   0.00032  -0.01175  -0.01203   0.00377
  17        2S          0.02630  -0.00655   0.02725   0.02494  -0.01283
  18        2PX        -0.10699   0.01079  -0.08591   0.07451   0.01450
  19        2PY         0.00353  -0.32905  -0.07653  -0.01342  -0.00131
  20        2PZ        -0.06078   0.00321  -0.02733   0.02781  -0.02120
  21        3S         -0.00402   0.02027   0.12905   0.12222  -0.04115
  22        3PX        -0.09059   0.00605  -0.06326   0.09964   0.02402
  23        3PY         0.00369  -0.46216  -0.10926  -0.01747  -0.00306
  24        3PZ        -0.01659   0.00048  -0.07971  -0.03172  -0.00558
  25        4XX         0.00011  -0.00151  -0.00426  -0.00726   0.00411
  26        4YY        -0.00027  -0.00158  -0.00005  -0.00283  -0.00377
  27        4ZZ         0.00321  -0.00210   0.00643   0.01018  -0.00601
  28        4XY        -0.00000  -0.00336  -0.00073  -0.00017   0.00037
  29        4XZ        -0.00226  -0.00028   0.00146  -0.00099  -0.00303
  30        4YZ        -0.00031  -0.00573  -0.00144  -0.00013   0.00043
  31 3   O  1S         -0.02005  -0.00260   0.02624  -0.07356   0.00361
  32        2S          0.04589   0.00903  -0.04416   0.06748   0.00562
  33        2PX        -0.09015   0.00325  -0.05670   0.19172  -0.05054
  34        2PY         0.00086  -0.20313  -0.04167  -0.00933   0.00314
  35        2PZ         0.01736   0.00082  -0.04078   0.13554  -0.05190
  36        3S          0.10578   0.00501  -0.26871   1.02138  -0.03101
  37        3PX        -0.06565   0.02501  -0.18806   0.44750  -0.14968
  38        3PY         0.00100  -0.27932  -0.06371  -0.01220   0.00125
  39        3PZ         0.00933   0.00542  -0.08339   0.37678  -0.03551
  40        4XX        -0.01010  -0.00118   0.01562  -0.03364   0.01339
  41        4YY        -0.00024   0.00146   0.00539  -0.04240   0.00452
  42        4ZZ        -0.00110   0.00110   0.00292  -0.02334   0.00375
  43        4XY        -0.00008  -0.02391  -0.00484  -0.00096   0.00111
  44        4XZ        -0.00354  -0.00017  -0.00351   0.00997  -0.00768
  45        4YZ         0.00008   0.00037   0.00123  -0.00000   0.00096
  46 4   H  1S         -0.03447  -0.00679   0.04611  -0.08583   0.00014
  47        2S         -0.02956  -0.05158   0.55986  -1.52038   0.30412
  48 5   C  1S         -0.08903   0.00087  -0.03323  -0.04018  -0.11219
  49        2S          0.32264  -0.00082   0.01953   0.01976   0.08292
  50        2PX         0.50455  -0.00414   0.03812   0.01158  -0.04887
  51        2PY         0.05266   0.01886  -0.07252  -0.03245  -0.03747
  52        2PZ         0.38822   0.02239  -0.11511  -0.06107  -0.14725
  53        3S          0.25790  -0.01931   0.61977   0.70936   2.08388
  54        3PX         0.18578  -0.10877   0.32376  -0.09225  -0.17420
  55        3PY         0.01748   0.31890  -0.13327  -0.05340  -0.16831
  56        3PZ         0.15003   0.03801  -0.45481  -0.16523  -0.66591
  57        4XX         0.02443  -0.00290   0.00313  -0.00408  -0.00550
  58        4YY        -0.03856   0.00872  -0.00728  -0.00488  -0.00761
  59        4ZZ        -0.00511  -0.00345  -0.00937   0.00176  -0.00572
  60        4XY         0.00971   0.01988   0.00261   0.00047  -0.00142
  61        4XZ         0.05733   0.00070  -0.00983   0.00579   0.01002
  62        4YZ         0.00180   0.01902   0.00659   0.00053   0.00064
  63 6   H  1S         -0.02343  -0.05609  -0.01715   0.01311  -0.02731
  64        2S         -0.03379  -0.23729  -0.58648  -0.38359  -1.37694
  65 7   H  1S         -0.02890   0.07632   0.02091   0.00808  -0.01204
  66        2S         -0.04220   0.47128  -0.53808  -0.45131  -1.30328
  67 8   N  1S          0.01175   0.02690  -0.09836  -0.01908   0.06811
  68        2S         -0.02515  -0.03141   0.08963   0.02281  -0.05047
  69        2PX        -0.05834   0.00394  -0.09966  -0.06898   0.00299
  70        2PY        -0.00584   0.00582  -0.08652  -0.01494   0.09021
  71        2PZ        -0.01157   0.02595   0.00000   0.02501  -0.04377
  72        3S         -0.06220  -0.40476   1.59401   0.27897  -1.12660
  73        3PX        -0.05533   0.02548  -0.30282  -0.22216  -0.01918
  74        3PY        -0.00853   0.01025  -0.31937  -0.04120   0.31633
  75        3PZ        -0.02543   0.13097   0.01117   0.11498  -0.06016
  76        4XX         0.01122   0.00670  -0.02724  -0.00626   0.01895
  77        4YY         0.00009   0.00890  -0.03037  -0.00677   0.01478
  78        4ZZ        -0.00520   0.00181  -0.02434  -0.00317   0.02945
  79        4XY         0.00180   0.00340   0.00348   0.00318  -0.00320
  80        4XZ         0.00429   0.00204  -0.00078   0.00013  -0.00653
  81        4YZ         0.00204   0.00081   0.00188  -0.00109   0.00524
  82 9   H  1S          0.04222   0.01965  -0.02832  -0.00408   0.00181
  83        2S          0.04828   0.30994  -1.15304  -0.36706   0.36436
  84 10  H  1S         -0.01950  -0.00399  -0.02531  -0.00110   0.04394
  85        2S         -0.01026   0.03336  -0.76583  -0.27379   0.87143
     Density Matrix:
                           1         2         3         4         5
   1 1   C  1S          2.05943
   2        2S         -0.11037   0.35057
   3        2PX         0.01526  -0.03488   0.35646
   4        2PY         0.00026   0.00049   0.00054   0.20980
   5        2PZ        -0.00821   0.01508   0.03656   0.00096   0.42072
   6        3S         -0.09728   0.19497  -0.14225  -0.00366  -0.09986
   7        3PX         0.02767  -0.04869   0.08430  -0.00153   0.03525
   8        3PY         0.00142  -0.00216   0.00107   0.10398   0.00065
   9        3PZ         0.02545  -0.04186   0.07381  -0.00177   0.02147
  10        4XX        -0.00277   0.00007   0.00775   0.00021  -0.03451
  11        4YY         0.00451  -0.01969  -0.00521  -0.00006  -0.00632
  12        4ZZ        -0.00842   0.01385  -0.00361   0.00012   0.02583
  13        4XY        -0.00028   0.00063  -0.00089   0.00650  -0.00058
  14        4XZ        -0.00114   0.00170  -0.02708  -0.00047   0.00370
  15        4YZ        -0.00017   0.00041  -0.00061   0.01982  -0.00056
  16 2   O  1S          0.01370  -0.01727  -0.00159  -0.00036  -0.05291
  17        2S         -0.02850   0.03492   0.00893   0.00074   0.10649
  18        2PX         0.00063  -0.00115   0.11068  -0.00285  -0.00466
  19        2PY        -0.00072   0.00281  -0.00370   0.30072  -0.00193
  20        2PZ         0.10411  -0.23649  -0.00645  -0.00035  -0.37693
  21        3S          0.00509  -0.05774  -0.00731   0.00302   0.03224
  22        3PX        -0.00723   0.01249   0.04717  -0.00196  -0.01547
  23        3PY        -0.00112   0.00312  -0.00332   0.21234  -0.00162
  24        3PZ         0.05238  -0.11291  -0.00656  -0.00120  -0.21370
  25        4XX         0.00268  -0.00552   0.00118   0.00004  -0.00849
  26        4YY         0.00148  -0.00216   0.00070  -0.00035  -0.00870
  27        4ZZ        -0.00855   0.01968   0.00285   0.00018   0.02846
  28        4XY        -0.00002   0.00002  -0.00018   0.00064  -0.00005
  29        4XZ         0.00022   0.00014  -0.01392   0.00018  -0.00116
  30        4YZ         0.00005  -0.00019   0.00031  -0.02535   0.00031
  31 3   O  1S          0.00819  -0.01023  -0.03879  -0.00023   0.01816
  32        2S         -0.01678   0.02229   0.08070   0.00036  -0.04298
  33        2PX         0.06643  -0.14142  -0.23036  -0.00065   0.14699
  34        2PY        -0.00006   0.00116  -0.00025   0.12385  -0.00082
  35        2PZ        -0.04406   0.09744   0.16461   0.00073  -0.09286
  36        3S          0.00509  -0.03356   0.11025   0.00200   0.01294
  37        3PX         0.03247  -0.06561  -0.15870  -0.00059   0.07950
  38        3PY        -0.00045   0.00158  -0.00095   0.07244  -0.00115
  39        3PZ        -0.03307   0.06587   0.10172   0.00137  -0.06230
  40        4XX        -0.00359   0.00507  -0.00529  -0.00008  -0.00641
  41        4YY         0.00183  -0.00227  -0.00544  -0.00015   0.00067
  42        4ZZ        -0.00353   0.00680   0.00993   0.00003  -0.00094
  43        4XY         0.00002  -0.00007   0.00019  -0.00499  -0.00002
  44        4XZ         0.00764  -0.01461  -0.01860  -0.00003   0.00568
  45        4YZ        -0.00003   0.00011  -0.00010   0.00958  -0.00004
  46 4   H  1S          0.01018  -0.02263  -0.03984  -0.00030   0.01179
  47        2S          0.00195  -0.00368  -0.05146  -0.00015  -0.01583
  48 5   C  1S          0.00708  -0.01500   0.03033   0.00060   0.02238
  49        2S         -0.01305   0.02298  -0.05529  -0.00045  -0.03838
  50        2PX        -0.04582   0.09411  -0.15712  -0.00301  -0.11824
  51        2PY        -0.00524   0.01172  -0.01850   0.01453  -0.01319
  52        2PZ        -0.03623   0.07476  -0.12665  -0.00380  -0.09208
  53        3S         -0.01143   0.03305  -0.07939  -0.00297  -0.08231
  54        3PX        -0.01195   0.03044  -0.08354   0.00007  -0.07871
  55        3PY        -0.00510   0.01209  -0.01089   0.00193  -0.01398
  56        3PZ        -0.01973   0.04456  -0.08183  -0.00762  -0.05870
  57        4XX        -0.00518   0.00974  -0.00810   0.00003  -0.00975
  58        4YY         0.00178  -0.00426   0.00630  -0.00031   0.00478
  59        4ZZ        -0.00149   0.00243  -0.00182   0.00028   0.00216
  60        4XY        -0.00043   0.00099  -0.00177   0.00257  -0.00136
  61        4XZ        -0.00538   0.01079  -0.01352  -0.00041  -0.00844
  62        4YZ        -0.00010   0.00002   0.00054   0.00089   0.00039
  63 6   H  1S          0.00642  -0.01453   0.02135   0.00474   0.01953
  64        2S          0.00946  -0.01919   0.02549  -0.00216   0.03139
  65 7   H  1S          0.00812  -0.01941   0.02741  -0.00474   0.02134
  66        2S          0.01148  -0.02437   0.04212  -0.00124   0.02986
  67 8   N  1S         -0.00270   0.00647  -0.00907   0.00074  -0.00499
  68        2S          0.00438  -0.01115   0.02008  -0.00341   0.00870
  69        2PX         0.01235  -0.02451   0.03879   0.00080   0.02452
  70        2PY         0.00144  -0.00524   0.00603  -0.00957   0.00537
  71        2PZ         0.00346  -0.00342   0.00969   0.00005   0.00473
  72        3S          0.01489  -0.03292   0.04228   0.00111   0.02709
  73        3PX         0.01609  -0.03201   0.03585   0.00482   0.02928
  74        3PY         0.00226  -0.00697   0.00984  -0.00942   0.00870
  75        3PZ         0.00226  -0.00241   0.01176   0.00300   0.01336
  76        4XX        -0.00188   0.00349  -0.00653  -0.00030  -0.00429
  77        4YY        -0.00049   0.00079   0.00087  -0.00022  -0.00051
  78        4ZZ         0.00090  -0.00183   0.00466  -0.00043   0.00265
  79        4XY        -0.00092   0.00173  -0.00179   0.00026  -0.00141
  80        4XZ        -0.00135   0.00271  -0.00381  -0.00014  -0.00259
  81        4YZ        -0.00011   0.00003  -0.00037   0.00006  -0.00039
  82 9   H  1S         -0.00857   0.01572  -0.02826   0.00053  -0.01826
  83        2S         -0.00794   0.01648  -0.03637   0.00366  -0.02203
  84 10  H  1S          0.00389  -0.00626   0.01573   0.00085   0.00847
  85        2S          0.00771  -0.01506   0.01579  -0.00238   0.00554
                           6         7         8         9        10
   6        3S          0.19682
   7        3PX        -0.05548   0.03918
   8        3PY        -0.00354  -0.00042   0.05210
   9        3PZ        -0.05595   0.01917  -0.00036   0.02475
  10        4XX         0.00574  -0.00154   0.00011   0.00120   0.00445
  11        4YY        -0.00594   0.00107   0.00007   0.00068   0.00031
  12        4ZZ         0.00153  -0.00006  -0.00003  -0.00269  -0.00335
  13        4XY         0.00055   0.00005   0.00273  -0.00040   0.00003
  14        4XZ         0.01798   0.00223  -0.00041  -0.00824  -0.00126
  15        4YZ         0.00071  -0.00063   0.01088  -0.00015   0.00008
  16 2   O  1S          0.01655  -0.00298  -0.00051   0.00524   0.00775
  17        2S         -0.04235   0.00646   0.00116  -0.01287  -0.01644
  18        2PX         0.05436   0.10305  -0.00232  -0.01877  -0.00186
  19        2PY         0.00202  -0.00537   0.15659  -0.00248   0.00061
  20        2PZ        -0.05313   0.00093   0.00166   0.00390   0.02850
  21        3S         -0.07725   0.01052   0.00277  -0.01380  -0.01307
  22        3PX         0.06193   0.06522  -0.00178  -0.02301  -0.00140
  23        3PY         0.00299  -0.00423   0.11138  -0.00175   0.00046
  24        3PZ        -0.01699  -0.00269   0.00038  -0.00067   0.01646
  25        4XX        -0.00164   0.00050   0.00008   0.00042   0.00069
  26        4YY         0.00022  -0.00035  -0.00014   0.00009   0.00069
  27        4ZZ         0.00336  -0.00014  -0.00001  -0.00003  -0.00213
  28        4XY        -0.00001  -0.00011   0.00031  -0.00005   0.00000
  29        4XZ         0.00057  -0.00698   0.00011  -0.00075   0.00004
  30        4YZ        -0.00008   0.00043  -0.01304   0.00022  -0.00006
  31 3   O  1S          0.02137   0.00550  -0.00055  -0.00443  -0.00492
  32        2S         -0.04710  -0.01229   0.00113   0.01052   0.01024
  33        2PX        -0.01619  -0.01760  -0.00000  -0.02118  -0.00831
  34        2PY        -0.00629   0.00649   0.04678  -0.00327  -0.00011
  35        2PZ         0.03198  -0.00010  -0.00056   0.04530   0.03465
  36        3S         -0.12192  -0.00987   0.00273   0.02961   0.00267
  37        3PX         0.01295  -0.01492  -0.00027  -0.02086  -0.00492
  38        3PY        -0.00374   0.00508   0.02437  -0.00263  -0.00006
  39        3PZ         0.02064  -0.00645   0.00008   0.03140   0.02343
  40        4XX         0.00539  -0.00228  -0.00006  -0.00240   0.00065
  41        4YY         0.00018  -0.00010  -0.00003  -0.00166  -0.00070
  42        4ZZ         0.00159   0.00056  -0.00003   0.00263   0.00211
  43        4XY         0.00003   0.00002  -0.00231   0.00012  -0.00001
  44        4XZ        -0.00240  -0.00218   0.00004  -0.00130   0.00009
  45        4YZ        -0.00031   0.00030   0.00403  -0.00022  -0.00002
  46 4   H  1S          0.00234  -0.01243  -0.00017   0.00385   0.01009
  47        2S          0.03203  -0.00628  -0.00043  -0.01148   0.00281
  48 5   C  1S         -0.01249  -0.00458  -0.00026   0.00644  -0.00352
  49        2S          0.02962  -0.00125   0.00098  -0.01681   0.00557
  50        2PX         0.15467  -0.05149  -0.00417  -0.04431   0.00323
  51        2PY         0.01639  -0.01287  -0.00137  -0.01071   0.00077
  52        2PZ         0.13104  -0.03465  -0.00150  -0.05337   0.00876
  53        3S          0.06715   0.00064  -0.00083  -0.02466   0.00872
  54        3PX         0.07931  -0.02151  -0.00113  -0.02528   0.00349
  55        3PY         0.01735  -0.00732  -0.00337  -0.00641   0.00054
  56        3PZ         0.08449  -0.01820  -0.00400  -0.03294   0.00467
  57        4XX         0.01261  -0.00399  -0.00013  -0.00494   0.00083
  58        4YY        -0.00727   0.00298   0.00045   0.00359  -0.00039
  59        4ZZ        -0.00025  -0.00020  -0.00029  -0.00008  -0.00021
  60        4XY         0.00121  -0.00070   0.00118  -0.00077  -0.00007
  61        4XZ         0.01468  -0.00564  -0.00019  -0.00404   0.00023
  62        4YZ         0.00018   0.00089   0.00107   0.00039   0.00019
  63 6   H  1S         -0.03550   0.00792  -0.00120   0.01158  -0.00192
  64        2S         -0.03941   0.00718  -0.00474   0.01080  -0.00334
  65 7   H  1S         -0.03559   0.01851   0.00355   0.01663  -0.00056
  66        2S         -0.04076   0.01711   0.00445   0.02130  -0.00205
  67 8   N  1S          0.00469  -0.00193   0.00075  -0.00509  -0.00046
  68        2S         -0.01013   0.00513  -0.00233   0.01070   0.00098
  69        2PX        -0.05858   0.03795   0.00025   0.00888   0.00484
  70        2PY        -0.00109  -0.00177  -0.00353   0.02753  -0.00265
  71        2PZ        -0.02470   0.02098  -0.00264   0.01537  -0.00164
  72        3S         -0.03094   0.01207   0.00097   0.02119  -0.00127
  73        3PX        -0.05596   0.02411   0.00298   0.01153   0.00156
  74        3PY        -0.00723   0.00147  -0.00264   0.02641  -0.00200
  75        3PZ        -0.02029   0.01601  -0.00005   0.01212  -0.00170
  76        4XX         0.00697  -0.00310  -0.00014  -0.00199   0.00025
  77        4YY        -0.00029   0.00072  -0.00013  -0.00098   0.00019
  78        4ZZ        -0.00442   0.00172  -0.00040   0.00222  -0.00015
  79        4XY         0.00369  -0.00236   0.00000  -0.00054  -0.00033
  80        4XZ         0.00542  -0.00301  -0.00003  -0.00115  -0.00016
  81        4YZ         0.00152  -0.00142   0.00036  -0.00101   0.00014
  82 9   H  1S          0.04359  -0.02756   0.00070  -0.01236  -0.00113
  83        2S          0.03896  -0.02099   0.00217  -0.01299  -0.00020
  84 10  H  1S         -0.02217   0.01416  -0.00169   0.00778  -0.00039
  85        2S         -0.02917   0.00585  -0.00240   0.00939  -0.00033
                          11        12        13        14        15
  11        4YY         0.00145
  12        4ZZ        -0.00120   0.00364
  13        4XY         0.00001  -0.00002   0.00143
  14        4XZ         0.00072   0.00060   0.00009   0.00969
  15        4YZ         0.00000  -0.00002  -0.00097   0.00004   0.00451
  16 2   O  1S          0.00422  -0.01321   0.00006  -0.00049   0.00002
  17        2S         -0.00912   0.02436  -0.00018   0.00024   0.00008
  18        2PX         0.00116   0.00372   0.00019   0.06273   0.00019
  19        2PY        -0.00003   0.00003  -0.00237   0.00026   0.04748
  20        2PZ         0.01539  -0.02585   0.00012  -0.00446   0.00035
  21        3S         -0.00368   0.01995   0.00001   0.00030  -0.00022
  22        3PX         0.00090   0.00318   0.00021   0.04851   0.00029
  23        3PY        -0.00004   0.00002  -0.00297   0.00037   0.03565
  24        3PZ         0.00746  -0.01369   0.00007  -0.00164   0.00028
  25        4XX         0.00033  -0.00060  -0.00002  -0.00007   0.00006
  26        4YY         0.00017  -0.00050  -0.00000  -0.00034   0.00000
  27        4ZZ        -0.00142   0.00219  -0.00002  -0.00014   0.00003
  28        4XY        -0.00000   0.00000   0.00005  -0.00004   0.00003
  29        4XZ         0.00013  -0.00023   0.00002  -0.00236   0.00000
  30        4YZ         0.00000   0.00000  -0.00004  -0.00000  -0.00360
  31 3   O  1S          0.00279  -0.00005   0.00007   0.01181   0.00004
  32        2S         -0.00623   0.00014  -0.00007  -0.02466  -0.00012
  33        2PX         0.01091  -0.00303   0.00028   0.03819  -0.00003
  34        2PY         0.00012  -0.00016   0.03237   0.00007  -0.02959
  35        2PZ        -0.00660  -0.02555  -0.00006  -0.01366  -0.00004
  36        3S         -0.00505   0.00360  -0.00064  -0.04265  -0.00007
  37        3PX         0.00615  -0.00110   0.00034   0.02686   0.00005
  38        3PY         0.00008  -0.00014   0.02467   0.00023  -0.02565
  39        3PZ        -0.00436  -0.01765  -0.00007  -0.01221   0.00006
  40        4XX        -0.00026   0.00003   0.00006   0.00061  -0.00000
  41        4YY         0.00018   0.00059   0.00001   0.00068   0.00002
  42        4ZZ        -0.00056  -0.00141   0.00002  -0.00009  -0.00002
  43        4XY        -0.00000   0.00000  -0.00043  -0.00002  -0.00005
  44        4XZ         0.00108  -0.00088   0.00002   0.00255   0.00001
  45        4YZ         0.00001   0.00001   0.00173   0.00001  -0.00115
  46 4   H  1S          0.00150  -0.00957   0.00006   0.00860   0.00003
  47        2S          0.00179  -0.00302   0.00012   0.01320   0.00015
  48 5   C  1S         -0.00026  -0.00085  -0.00034  -0.00648  -0.00019
  49        2S         -0.00004   0.00114   0.00047   0.01095   0.00045
  50        2PX         0.00082   0.00149   0.00075   0.02108   0.00043
  51        2PY        -0.00065   0.00104  -0.00530   0.00246  -0.00530
  52        2PZ         0.00078  -0.00456   0.00109   0.01337   0.00099
  53        3S          0.00113  -0.00138   0.00160   0.02389  -0.00016
  54        3PX         0.00162  -0.00110  -0.00008   0.01517   0.00086
  55        3PY        -0.00036   0.00041  -0.00280   0.00304  -0.00277
  56        3PZ         0.00076  -0.00249   0.00161   0.01270  -0.00108
  57        4XX        -0.00023  -0.00018  -0.00004   0.00073  -0.00006
  58        4YY        -0.00001   0.00013   0.00028  -0.00039   0.00040
  59        4ZZ        -0.00017   0.00041  -0.00021   0.00016  -0.00027
  60        4XY         0.00002   0.00014   0.00015   0.00018   0.00017
  61        4XZ        -0.00009   0.00019   0.00017   0.00122   0.00019
  62        4YZ         0.00003  -0.00026   0.00038  -0.00017   0.00060
  63 6   H  1S         -0.00067   0.00344  -0.00242   0.00021  -0.00275
  64        2S         -0.00039   0.00308  -0.00146  -0.00321  -0.00423
  65 7   H  1S          0.00016   0.00059   0.00338  -0.00131   0.00368
  66        2S          0.00016   0.00039   0.00242  -0.00480   0.00400
  67 8   N  1S          0.00011   0.00022   0.00022   0.00046   0.00003
  68        2S         -0.00032  -0.00066  -0.00038  -0.00095  -0.00050
  69        2PX        -0.00021  -0.00244  -0.00136  -0.00356  -0.00113
  70        2PY         0.00009   0.00014  -0.00008  -0.00055   0.00078
  71        2PZ         0.00064   0.00131   0.00030   0.00083   0.00030
  72        3S          0.00025  -0.00051  -0.00129  -0.00333   0.00198
  73        3PX         0.00020  -0.00136  -0.00129  -0.00653   0.00067
  74        3PY         0.00004  -0.00013   0.00062  -0.00160   0.00118
  75        3PZ         0.00016   0.00139   0.00011   0.00097   0.00057
  76        4XX        -0.00002  -0.00006   0.00003   0.00074  -0.00005
  77        4YY        -0.00004  -0.00003   0.00011  -0.00002  -0.00013
  78        4ZZ        -0.00005   0.00012  -0.00003  -0.00049  -0.00018
  79        4XY        -0.00002   0.00018   0.00002   0.00023  -0.00001
  80        4XZ        -0.00001   0.00004   0.00011   0.00021   0.00008
  81        4YZ        -0.00004  -0.00012   0.00005  -0.00013   0.00007
  82 9   H  1S         -0.00012   0.00057   0.00050   0.00245   0.00042
  83        2S          0.00020   0.00015   0.00027   0.00343   0.00099
  84 10  H  1S          0.00013   0.00073  -0.00007  -0.00087  -0.00038
  85        2S          0.00022   0.00020  -0.00013  -0.00538  -0.00112
                          16        17        18        19        20
  16 2   O  1S          2.08178
  17        2S         -0.18554   0.50318
  18        2PX         0.00023  -0.00280   0.78202
  19        2PY        -0.00008   0.00083   0.00212   0.56929
  20        2PZ        -0.04434   0.10319  -0.00651   0.00103   0.58658
  21        3S         -0.23688   0.54755  -0.00341   0.00038   0.25852
  22        3PX         0.00024  -0.00263   0.56782   0.00275  -0.00291
  23        3PY         0.00044  -0.00038   0.00283   0.41739  -0.00028
  24        3PZ        -0.03334   0.08004  -0.00072   0.00033   0.32960
  25        4XX        -0.00898   0.00242   0.00144   0.00042   0.01351
  26        4YY        -0.00840   0.00022  -0.00102  -0.00031   0.01025
  27        4ZZ        -0.00753   0.00018  -0.00202   0.00039  -0.04157
  28        4XY        -0.00009   0.00020  -0.00062   0.00069   0.00014
  29        4XZ         0.00015  -0.00036  -0.04061   0.00002   0.00154
  30        4YZ         0.00002  -0.00010   0.00004  -0.04511  -0.00028
  31 3   O  1S         -0.00104   0.00078   0.02177   0.00024  -0.00367
  32        2S          0.00058   0.00205  -0.03923  -0.00091   0.01269
  33        2PX        -0.00335   0.00101   0.04975   0.00088  -0.03021
  34        2PY        -0.00004  -0.00128   0.00143  -0.12413   0.00047
  35        2PZ         0.01577  -0.03120  -0.09768  -0.00039   0.06387
  36        3S          0.00152   0.00189  -0.18069   0.00041  -0.01225
  37        3PX         0.00055  -0.00589   0.05353   0.00089  -0.02675
  38        3PY         0.00011  -0.00132   0.00169  -0.13355   0.00025
  39        3PZ         0.01116  -0.02154  -0.11293   0.00090   0.04379
  40        4XX        -0.00051   0.00149   0.00652  -0.00006   0.00297
  41        4YY        -0.00110   0.00201   0.00483   0.00000   0.00057
  42        4ZZ        -0.00014  -0.00002   0.00090  -0.00014  -0.00020
  43        4XY        -0.00001   0.00004   0.00005  -0.00411   0.00004
  44        4XZ         0.00066  -0.00168  -0.00015   0.00017   0.00528
  45        4YZ        -0.00001  -0.00004   0.00011  -0.00128  -0.00002
  46 4   H  1S          0.00333  -0.00823  -0.00757   0.00040   0.02078
  47        2S         -0.00242   0.00441   0.05732   0.00136   0.02737
  48 5   C  1S         -0.00160   0.00335  -0.01828  -0.00062  -0.00978
  49        2S          0.00319  -0.00745   0.02909   0.00274   0.01691
  50        2PX         0.00699  -0.01555   0.06622   0.00041   0.04040
  51        2PY         0.00023  -0.00236   0.00526  -0.02072   0.00284
  52        2PZ         0.00736  -0.01965   0.06258   0.00321   0.03866
  53        3S          0.00524  -0.01218   0.12662  -0.00386   0.05378
  54        3PX         0.00352  -0.00838   0.07828   0.00635   0.05123
  55        3PY         0.00136  -0.00373   0.01884  -0.01529   0.00306
  56        3PZ         0.00361  -0.01000   0.07186  -0.01427   0.02704
  57        4XX         0.00029  -0.00085   0.00445  -0.00031   0.00278
  58        4YY        -0.00027   0.00097  -0.00121   0.00222  -0.00170
  59        4ZZ        -0.00026   0.00040  -0.00276  -0.00144  -0.00385
  60        4XY        -0.00002  -0.00000  -0.00040   0.00323   0.00041
  61        4XZ         0.00030  -0.00077   0.00039   0.00087   0.00043
  62        4YZ         0.00008  -0.00010   0.00075   0.00451   0.00002
  63 6   H  1S         -0.00206   0.00507  -0.01412  -0.01312  -0.01222
  64        2S         -0.00226   0.00478  -0.02717  -0.02952  -0.01993
  65 7   H  1S         -0.00093   0.00407  -0.00740   0.01874  -0.00712
  66        2S         -0.00110   0.00458  -0.01501   0.02414  -0.01191
  67 8   N  1S         -0.00029   0.00033  -0.00384   0.00102   0.00053
  68        2S          0.00042  -0.00037   0.00958  -0.00678  -0.00051
  69        2PX         0.00009  -0.00167   0.00627  -0.00680  -0.00143
  70        2PY         0.00016   0.00379  -0.00740  -0.00446  -0.00219
  71        2PZ         0.00163  -0.00304   0.01307   0.00117  -0.00481
  72        3S          0.00196  -0.00297   0.01770   0.01403  -0.00684
  73        3PX        -0.00260   0.00493  -0.02777   0.00879  -0.00085
  74        3PY        -0.00085   0.00563  -0.01494  -0.00190  -0.00228
  75        3PZ         0.00173  -0.00328   0.01296   0.00578  -0.01405
  76        4XX         0.00005  -0.00009   0.00107  -0.00061   0.00182
  77        4YY        -0.00003  -0.00007   0.00105  -0.00107   0.00010
  78        4ZZ        -0.00020   0.00052  -0.00175  -0.00167  -0.00124
  79        4XY         0.00004   0.00001   0.00044   0.00019  -0.00025
  80        4XZ         0.00006  -0.00003  -0.00088   0.00040   0.00048
  81        4YZ        -0.00015   0.00030  -0.00132   0.00055   0.00059
  82 9   H  1S         -0.00025   0.00070  -0.00220   0.00351   0.00500
  83        2S          0.00004  -0.00026  -0.00006   0.00996   0.00919
  84 10  H  1S          0.00075  -0.00191   0.00355  -0.00208  -0.00515
  85        2S         -0.00444   0.00988  -0.04609  -0.00973   0.00961
                          21        22        23        24        25
  21        3S          0.64371
  22        3PX        -0.00248   0.41633
  23        3PY        -0.00166   0.00307   0.30734
  24        3PZ         0.16440   0.00152  -0.00015   0.18807
  25        4XX         0.00597   0.00096   0.00032   0.00762   0.00036
  26        4YY         0.00263  -0.00068  -0.00020   0.00581   0.00027
  27        4ZZ        -0.01093  -0.00178   0.00036  -0.02288  -0.00092
  28        4XY         0.00028  -0.00044   0.00045   0.00008  -0.00000
  29        4XZ         0.00025  -0.02870  -0.00004   0.00081  -0.00007
  30        4YZ        -0.00018  -0.00006  -0.03283  -0.00012  -0.00003
  31 3   O  1S         -0.00314   0.01637   0.00039   0.00017  -0.00010
  32        2S          0.01084  -0.02892  -0.00113   0.00243   0.00045
  33        2PX         0.01548   0.05071   0.00073  -0.01853  -0.00100
  34        2PY         0.00569   0.00005  -0.12120  -0.00135  -0.00052
  35        2PZ        -0.07716  -0.08631  -0.00024   0.05715   0.00240
  36        3S          0.01649  -0.13881  -0.00055  -0.01979  -0.00036
  37        3PX        -0.00017   0.05071   0.00084  -0.01501  -0.00083
  38        3PY         0.00380   0.00053  -0.12070  -0.00097  -0.00042
  39        3PZ        -0.05301  -0.09232   0.00062   0.03905   0.00153
  40        4XX         0.00223   0.00589  -0.00003   0.00203   0.00007
  41        4YY         0.00374   0.00410   0.00002  -0.00007  -0.00001
  42        4ZZ        -0.00371  -0.00019  -0.00011   0.00137   0.00007
  43        4XY        -0.00008   0.00002  -0.00256   0.00006   0.00001
  44        4XZ         0.00127   0.00111   0.00012   0.00274   0.00009
  45        4YZ         0.00033   0.00004  -0.00257  -0.00011  -0.00003
  46 4   H  1S         -0.01214  -0.00269   0.00035   0.01723   0.00066
  47        2S          0.00835   0.04720   0.00121   0.01928   0.00065
  48 5   C  1S          0.00212  -0.01485  -0.00052  -0.00690  -0.00044
  49        2S         -0.00147   0.02619   0.00191   0.01112   0.00044
  50        2PX        -0.02501   0.07100   0.00201   0.03455   0.00113
  51        2PY         0.00544   0.00737  -0.01912   0.00008  -0.00057
  52        2PZ        -0.01166   0.06474   0.00333   0.02945   0.00003
  53        3S         -0.00479   0.10117  -0.00271   0.03584   0.00163
  54        3PX        -0.00322   0.06926   0.00571   0.03439   0.00129
  55        3PY        -0.00189   0.01625  -0.01264   0.00184  -0.00016
  56        3PZ        -0.00555   0.06446  -0.01031   0.02049   0.00024
  57        4XX        -0.00031   0.00490  -0.00030   0.00224  -0.00005
  58        4YY        -0.00020  -0.00206   0.00191  -0.00113   0.00008
  59        4ZZ        -0.00029  -0.00201  -0.00121  -0.00225  -0.00008
  60        4XY         0.00031  -0.00002   0.00218   0.00019   0.00000
  61        4XZ        -0.00276   0.00236   0.00087   0.00150   0.00000
  62        4YZ        -0.00077   0.00042   0.00358   0.00029   0.00004
  63 6   H  1S          0.00573  -0.01473  -0.01163  -0.00999  -0.00010
  64        2S          0.00626  -0.02434  -0.02400  -0.01525  -0.00046
  65 7   H  1S         -0.00239  -0.01135   0.01602  -0.00409   0.00056
  66        2S         -0.00449  -0.01782   0.02021  -0.00694   0.00045
  67 8   N  1S          0.00301  -0.00150   0.00036  -0.00037  -0.00024
  68        2S         -0.00558   0.00413  -0.00425   0.00103   0.00041
  69        2PX         0.01141  -0.00425  -0.00594  -0.00596   0.00001
  70        2PY        -0.02280  -0.00747   0.00054   0.00528   0.00124
  71        2PZ        -0.00952   0.00504   0.00199  -0.00283   0.00112
  72        3S         -0.01101   0.00725   0.01250  -0.00368   0.00054
  73        3PX         0.01494  -0.02769   0.00616  -0.00501  -0.00002
  74        3PY        -0.01801  -0.01381   0.00223   0.00450   0.00116
  75        3PZ        -0.01045   0.00564   0.00495  -0.00821   0.00052
  76        4XX        -0.00046   0.00180  -0.00042   0.00161   0.00001
  77        4YY         0.00095   0.00071  -0.00096  -0.00020  -0.00004
  78        4ZZ        -0.00011  -0.00204  -0.00124  -0.00082   0.00004
  79        4XY        -0.00084   0.00085   0.00014   0.00015  -0.00001
  80        4XZ        -0.00087   0.00014   0.00037   0.00073  -0.00001
  81        4YZ         0.00077  -0.00067   0.00035   0.00035  -0.00007
  82 9   H  1S         -0.00241   0.00510   0.00255   0.00573  -0.00033
  83        2S         -0.00072   0.00630   0.00741   0.00758  -0.00012
  84 10  H  1S         -0.00161  -0.00109  -0.00165  -0.00441   0.00041
  85        2S          0.01434  -0.03722  -0.00765   0.00382   0.00043
                          26        27        28        29        30
  26        4YY         0.00026
  27        4ZZ        -0.00069   0.00314
  28        4XY         0.00000  -0.00001   0.00000
  29        4XZ         0.00005  -0.00005   0.00003   0.00232
  30        4YZ         0.00003  -0.00001  -0.00006  -0.00001   0.00362
  31 3   O  1S         -0.00071  -0.00017  -0.00001   0.00003  -0.00003
  32        2S          0.00162   0.00003   0.00002  -0.00005   0.00008
  33        2PX        -0.00363  -0.00064   0.00001   0.00437  -0.00001
  34        2PY        -0.00031  -0.00043   0.00095   0.00007   0.00423
  35        2PZ         0.00187  -0.00130   0.00006   0.00254  -0.00007
  36        3S          0.00114   0.00201   0.00009   0.00572  -0.00002
  37        3PX        -0.00225  -0.00001  -0.00001   0.00193  -0.00003
  38        3PY        -0.00021  -0.00036   0.00067   0.00004   0.00635
  39        3PZ         0.00129  -0.00080   0.00008   0.00423  -0.00016
  40        4XX         0.00010  -0.00022  -0.00000  -0.00018   0.00000
  41        4YY        -0.00001  -0.00012  -0.00000  -0.00014   0.00001
  42        4ZZ         0.00000   0.00022  -0.00000  -0.00015   0.00001
  43        4XY         0.00001   0.00000  -0.00002  -0.00001   0.00041
  44        4XZ        -0.00014  -0.00062   0.00000   0.00059  -0.00001
  45        4YZ        -0.00002  -0.00002   0.00006   0.00000  -0.00020
  46 4   H  1S         -0.00040  -0.00155   0.00002   0.00242  -0.00003
  47        2S          0.00001  -0.00239  -0.00002  -0.00115  -0.00011
  48 5   C  1S         -0.00070   0.00103   0.00001  -0.00021   0.00003
  49        2S          0.00061  -0.00203   0.00001   0.00009  -0.00016
  50        2PX         0.00185  -0.00386  -0.00008   0.00072  -0.00010
  51        2PY        -0.00060  -0.00083  -0.00022   0.00021   0.00061
  52        2PZ         0.00034  -0.00363   0.00004   0.00034  -0.00008
  53        3S          0.00142  -0.00505  -0.00006  -0.00383   0.00030
  54        3PX         0.00125  -0.00449  -0.00007  -0.00161  -0.00050
  55        3PY        -0.00017  -0.00057  -0.00013  -0.00064   0.00077
  56        3PZ         0.00032  -0.00258   0.00001  -0.00131   0.00114
  57        4XX         0.00005  -0.00023   0.00001  -0.00002   0.00002
  58        4YY         0.00006   0.00020  -0.00001  -0.00011  -0.00012
  59        4ZZ        -0.00007   0.00025  -0.00001   0.00018   0.00007
  60        4XY         0.00001  -0.00005   0.00003   0.00006  -0.00028
  61        4XZ         0.00013  -0.00003   0.00000   0.00031  -0.00005
  62        4YZ         0.00003   0.00005  -0.00000  -0.00004  -0.00030
  63 6   H  1S         -0.00016   0.00064  -0.00007   0.00011   0.00056
  64        2S         -0.00053   0.00126  -0.00001   0.00062   0.00185
  65 7   H  1S          0.00051   0.00090   0.00008  -0.00032  -0.00088
  66        2S          0.00037   0.00144  -0.00001  -0.00036  -0.00137
  67 8   N  1S          0.00002   0.00006   0.00010   0.00039  -0.00006
  68        2S         -0.00005  -0.00012  -0.00025  -0.00090   0.00049
  69        2PX        -0.00073  -0.00013  -0.00021  -0.00091   0.00038
  70        2PY         0.00141   0.00098  -0.00078   0.00007   0.00044
  71        2PZ         0.00017  -0.00011  -0.00015  -0.00053  -0.00022
  72        3S         -0.00010   0.00039  -0.00040  -0.00192  -0.00097
  73        3PX        -0.00053   0.00014  -0.00010   0.00064  -0.00070
  74        3PY         0.00125   0.00099  -0.00066   0.00039   0.00032
  75        3PZ        -0.00007   0.00072  -0.00012  -0.00073  -0.00054
  76        4XX         0.00006  -0.00014  -0.00001   0.00010   0.00005
  77        4YY        -0.00005  -0.00003   0.00004  -0.00006   0.00008
  78        4ZZ        -0.00001   0.00010  -0.00002  -0.00002   0.00011
  79        4XY         0.00003   0.00003   0.00001  -0.00000  -0.00002
  80        4XZ         0.00005  -0.00001   0.00001   0.00012  -0.00002
  81        4YZ         0.00000   0.00001   0.00002   0.00005  -0.00002
  82 9   H  1S          0.00020  -0.00030   0.00017   0.00056  -0.00019
  83        2S          0.00027  -0.00068   0.00013   0.00078  -0.00072
  84 10  H  1S         -0.00028  -0.00006   0.00002  -0.00033   0.00004
  85        2S          0.00012  -0.00055   0.00006   0.00197   0.00064
                          31        32        33        34        35
  31 3   O  1S          2.07747
  32        2S         -0.18224   0.51028
  33        2PX        -0.00237   0.01418   0.52487
  34        2PY        -0.00010   0.00139   0.00080   0.77041
  35        2PZ         0.03988  -0.09514  -0.00291  -0.00012   0.69703
  36        3S         -0.22680   0.53216  -0.03699  -0.00326  -0.18710
  37        3PX        -0.00099   0.00789   0.32056   0.00137  -0.01502
  38        3PY         0.00023   0.00046   0.00107   0.59106   0.00058
  39        3PZ         0.02973  -0.07789  -0.00427  -0.00071   0.48367
  40        4XX        -0.01741   0.02077   0.00744   0.00052  -0.00495
  41        4YY        -0.00946   0.00345   0.00192  -0.00011  -0.01728
  42        4ZZ        -0.00982   0.00300   0.01004   0.00048   0.04428
  43        4XY        -0.00000  -0.00001  -0.00033  -0.00976  -0.00018
  44        4XZ        -0.00316   0.00775   0.04437  -0.00010   0.00325
  45        4YZ        -0.00000   0.00008  -0.00007   0.04057  -0.00035
  46 4   H  1S         -0.03473   0.08184   0.22932  -0.00090   0.19400
  47        2S          0.01289  -0.02816   0.09690  -0.00096   0.05290
  48 5   C  1S         -0.00430   0.00686  -0.01483  -0.00083  -0.00147
  49        2S          0.00717  -0.01223   0.02624  -0.00099  -0.00277
  50        2PX         0.01786  -0.03731   0.06090  -0.00062  -0.00563
  51        2PY         0.00202  -0.00561   0.00686  -0.01776   0.00076
  52        2PZ         0.00913  -0.01471   0.03551   0.00271  -0.01184
  53        3S          0.02163  -0.04134   0.06556   0.01633   0.03400
  54        3PX         0.00787  -0.01537   0.04875  -0.00956  -0.00834
  55        3PY         0.00334  -0.00764   0.00459  -0.01534   0.00677
  56        3PZ         0.01027  -0.01858   0.03691   0.02201  -0.00637
  57        4XX        -0.00000   0.00032  -0.00309  -0.00061  -0.00025
  58        4YY        -0.00049   0.00096  -0.00107   0.00110  -0.00007
  59        4ZZ         0.00021  -0.00052   0.00131  -0.00086   0.00017
  60        4XY         0.00015  -0.00040   0.00087   0.00213   0.00006
  61        4XZ         0.00120  -0.00260   0.00372   0.00006   0.00145
  62        4YZ        -0.00019   0.00067  -0.00106   0.00201  -0.00042
  63 6   H  1S          0.00094  -0.00362   0.00209  -0.00990   0.00658
  64        2S         -0.00352   0.00588  -0.00304   0.00797  -0.00910
  65 7   H  1S         -0.00125   0.00343  -0.00441   0.01452   0.00326
  66        2S         -0.00457   0.00980  -0.01661   0.00531  -0.00261
  67 8   N  1S          0.00116  -0.00252   0.00387   0.00078   0.00180
  68        2S         -0.00187   0.00413  -0.01006   0.00240  -0.00011
  69        2PX        -0.00556   0.01514  -0.02049  -0.00252  -0.00082
  70        2PY        -0.00032  -0.00148   0.00147   0.00719   0.00160
  71        2PZ         0.00113  -0.00299   0.00363   0.00188   0.00102
  72        3S         -0.00948   0.01931  -0.01607  -0.01960  -0.02724
  73        3PX        -0.00686   0.01565  -0.01710  -0.01376  -0.00688
  74        3PY        -0.00008  -0.00143  -0.00166   0.01105   0.00569
  75        3PZ         0.00206  -0.00478   0.00304   0.00050   0.00082
  76        4XX         0.00066  -0.00138   0.00262   0.00074   0.00041
  77        4YY         0.00008   0.00002  -0.00115   0.00123   0.00117
  78        4ZZ        -0.00025   0.00045  -0.00210   0.00099   0.00126
  79        4XY         0.00035  -0.00096   0.00082   0.00013   0.00016
  80        4XZ         0.00040  -0.00097   0.00103   0.00046   0.00026
  81        4YZ        -0.00018   0.00045  -0.00047   0.00018   0.00013
  82 9   H  1S          0.00305  -0.00763   0.01132  -0.00018  -0.00049
  83        2S          0.00369  -0.00833   0.01774  -0.00393  -0.00032
  84 10  H  1S         -0.00054   0.00109  -0.00453  -0.00049   0.00196
  85        2S         -0.00197   0.00317  -0.00959   0.00252   0.01262
                          36        37        38        39        40
  36        3S          0.62487
  37        3PX        -0.03327   0.19939
  38        3PY        -0.00387   0.00145   0.45616
  39        3PZ        -0.13284  -0.01295  -0.00020   0.33878
  40        4XX         0.01714   0.00557   0.00043  -0.00435   0.00138
  41        4YY         0.00463   0.00171  -0.00008  -0.01216   0.00032
  42        4ZZ        -0.00483   0.00548   0.00042   0.03004   0.00028
  43        4XY         0.00010  -0.00021  -0.00708  -0.00014  -0.00001
  44        4XZ         0.00343   0.02689  -0.00005   0.00209   0.00090
  45        4YZ        -0.00011   0.00001   0.03076  -0.00026   0.00003
  46 4   H  1S          0.03053   0.13704  -0.00036   0.13072   0.00655
  47        2S         -0.06671   0.06275  -0.00044   0.03378   0.00192
  48 5   C  1S          0.02771  -0.01549  -0.00102   0.00012  -0.00152
  49        2S         -0.04429   0.02674  -0.00030  -0.00218   0.00217
  50        2PX        -0.10720   0.05582   0.00086  -0.00572   0.00673
  51        2PY        -0.00984   0.00406  -0.01436   0.00177   0.00035
  52        2PZ        -0.07740   0.03844   0.00266  -0.01293   0.00525
  53        3S         -0.11336   0.05603   0.01382   0.01792   0.00403
  54        3PX        -0.06156   0.04033  -0.00701  -0.00939   0.00433
  55        3PY        -0.01589   0.00366  -0.01156   0.00446   0.00047
  56        3PZ        -0.06550   0.03387   0.01831  -0.00885   0.00357
  57        4XX        -0.00461  -0.00040  -0.00043  -0.00042   0.00046
  58        4YY         0.00377  -0.00131   0.00077  -0.00002  -0.00023
  59        4ZZ        -0.00039   0.00087  -0.00060   0.00037   0.00000
  60        4XY        -0.00117   0.00075   0.00145   0.00014   0.00009
  61        4XZ        -0.00794   0.00384   0.00013   0.00111   0.00055
  62        4YZ         0.00056  -0.00053   0.00133  -0.00055  -0.00000
  63 6   H  1S          0.00742  -0.00151  -0.00746   0.00720  -0.00112
  64        2S          0.02521  -0.00629   0.00727  -0.00378  -0.00130
  65 7   H  1S          0.01164  -0.00352   0.01108   0.00222  -0.00093
  66        2S          0.02849  -0.01396   0.00325  -0.00186  -0.00145
  67 8   N  1S         -0.00629   0.00333   0.00062   0.00159   0.00036
  68        2S          0.01124  -0.00833   0.00193  -0.00103  -0.00077
  69        2PX         0.02135  -0.01426  -0.00222  -0.00360  -0.00159
  70        2PY         0.01381  -0.00325   0.00483   0.00105  -0.00047
  71        2PZ        -0.00396   0.00077   0.00235  -0.00206   0.00002
  72        3S          0.04128  -0.01519  -0.01645  -0.02087  -0.00124
  73        3PX         0.03432  -0.01484  -0.01163  -0.00487  -0.00184
  74        3PY         0.01385  -0.00503   0.00794   0.00408  -0.00073
  75        3PZ        -0.00385   0.00065   0.00052  -0.00124  -0.00034
  76        4XX        -0.00369   0.00226   0.00058   0.00039   0.00022
  77        4YY        -0.00100  -0.00049   0.00108   0.00071   0.00001
  78        4ZZ         0.00227  -0.00185   0.00085   0.00090  -0.00018
  79        4XY        -0.00132   0.00056   0.00010   0.00027   0.00009
  80        4XZ        -0.00179   0.00087   0.00037   0.00036   0.00014
  81        4YZ         0.00059  -0.00018   0.00005   0.00030  -0.00000
  82 9   H  1S         -0.01392   0.00907  -0.00023   0.00181   0.00100
  83        2S         -0.01910   0.01391  -0.00345   0.00109   0.00126
  84 10  H  1S          0.00299  -0.00420   0.00036   0.00007  -0.00040
  85        2S          0.01606  -0.00971   0.00271   0.01088  -0.00101
                          41        42        43        44        45
  41        4YY         0.00051
  42        4ZZ        -0.00099   0.00333
  43        4XY         0.00001  -0.00002   0.00019
  44        4XZ         0.00011   0.00110  -0.00003   0.00399
  45        4YZ         0.00000  -0.00000  -0.00057  -0.00002   0.00219
  46 4   H  1S         -0.00362   0.01864  -0.00019   0.02195  -0.00020
  47        2S         -0.00057   0.00510  -0.00008   0.00829  -0.00009
  48 5   C  1S         -0.00128  -0.00104   0.00006  -0.00152  -0.00003
  49        2S          0.00167   0.00137  -0.00006   0.00255  -0.00006
  50        2PX         0.00104  -0.00044  -0.00007   0.00548   0.00000
  51        2PY        -0.00063  -0.00044  -0.00076   0.00051  -0.00126
  52        2PZ         0.00222  -0.00027   0.00008   0.00313   0.00020
  53        3S          0.00136   0.00450  -0.00019   0.00591   0.00081
  54        3PX         0.00105   0.00000   0.00001   0.00453  -0.00045
  55        3PY        -0.00048   0.00018  -0.00022   0.00031  -0.00103
  56        3PZ         0.00140   0.00026  -0.00006   0.00300   0.00107
  57        4XX         0.00012  -0.00005  -0.00001  -0.00024  -0.00004
  58        4YY        -0.00002   0.00006   0.00005  -0.00010   0.00009
  59        4ZZ        -0.00003   0.00004  -0.00003   0.00008  -0.00006
  60        4XY        -0.00001   0.00000  -0.00009   0.00009   0.00015
  61        4XZ         0.00003   0.00005   0.00001   0.00033   0.00002
  62        4YZ         0.00009   0.00001   0.00003  -0.00010   0.00016
  63 6   H  1S         -0.00069   0.00062  -0.00035   0.00021  -0.00072
  64        2S         -0.00051  -0.00065  -0.00035  -0.00032   0.00011
  65 7   H  1S          0.00041   0.00097   0.00039  -0.00029   0.00102
  66        2S          0.00004  -0.00001   0.00043  -0.00142   0.00058
  67 8   N  1S         -0.00006   0.00007  -0.00006   0.00036   0.00004
  68        2S         -0.00002  -0.00002   0.00015  -0.00098   0.00008
  69        2PX         0.00103   0.00097  -0.00000  -0.00162  -0.00023
  70        2PY        -0.00065  -0.00067   0.00069  -0.00003   0.00040
  71        2PZ        -0.00019   0.00005  -0.00005   0.00049   0.00018
  72        3S          0.00033  -0.00184   0.00044  -0.00162  -0.00089
  73        3PX         0.00050  -0.00015   0.00007  -0.00127  -0.00067
  74        3PY        -0.00056  -0.00026   0.00066  -0.00024   0.00064
  75        3PZ        -0.00018   0.00018  -0.00007   0.00017   0.00012
  76        4XX         0.00003   0.00003   0.00000   0.00022   0.00003
  77        4YY         0.00001   0.00011  -0.00003  -0.00009   0.00006
  78        4ZZ        -0.00008   0.00005  -0.00000  -0.00017   0.00004
  79        4XY        -0.00009  -0.00006  -0.00001   0.00005   0.00001
  80        4XZ        -0.00005  -0.00006   0.00000   0.00008   0.00003
  81        4YZ         0.00002   0.00002   0.00001  -0.00004   0.00001
  82 9   H  1S         -0.00032  -0.00046  -0.00004   0.00085   0.00001
  83        2S         -0.00003  -0.00021  -0.00006   0.00152  -0.00013
  84 10  H  1S         -0.00013   0.00020  -0.00014  -0.00027  -0.00002
  85        2S         -0.00060   0.00032  -0.00007  -0.00035   0.00005
                          46        47        48        49        50
  46 4   H  1S          0.17687
  47        2S          0.05529   0.03327
  48 5   C  1S         -0.00687  -0.00639   2.05765
  49        2S          0.01031   0.01143  -0.08720   0.27765
  50        2PX         0.02851   0.04757   0.00028  -0.00696   0.32112
  51        2PY         0.00414   0.00844   0.00266   0.00114   0.00823
  52        2PZ         0.01519   0.03117   0.01278  -0.01857  -0.01132
  53        3S          0.03664   0.03669  -0.17200   0.26861   0.08812
  54        3PX         0.02227   0.03130  -0.00734   0.00870   0.14794
  55        3PY         0.00436   0.00791   0.00626  -0.01110   0.03180
  56        3PZ         0.01500   0.02546   0.00368  -0.00938   0.02844
  57        4XX        -0.00070   0.00187  -0.00398   0.00149  -0.00222
  58        4YY        -0.00073  -0.00191  -0.00680   0.00683  -0.00086
  59        4ZZ         0.00053   0.00008  -0.00639   0.00591   0.00500
  60        4XY         0.00049   0.00066   0.00000  -0.00033   0.00865
  61        4XZ         0.00239   0.00355   0.00085  -0.00316   0.02519
  62        4YZ        -0.00064  -0.00070   0.00043  -0.00112  -0.00796
  63 6   H  1S          0.00159  -0.00350  -0.05582   0.10809   0.03668
  64        2S         -0.00435  -0.00791  -0.00949   0.02923   0.01725
  65 7   H  1S         -0.00273  -0.01023  -0.05368   0.09979  -0.01737
  66        2S         -0.00900  -0.01434  -0.00514   0.01636  -0.01658
  67 8   N  1S          0.00236   0.00233   0.00824  -0.01514   0.04095
  68        2S         -0.00477  -0.00474  -0.01822   0.03201  -0.08347
  69        2PX        -0.01043  -0.01820  -0.05588   0.11454  -0.19121
  70        2PY         0.00038  -0.00341   0.02273  -0.04873   0.08598
  71        2PZ         0.00176  -0.00108   0.03258  -0.07159   0.13672
  72        3S         -0.01392  -0.01229   0.01241  -0.01508  -0.10010
  73        3PX        -0.01032  -0.01764  -0.02041   0.04790  -0.13541
  74        3PY        -0.00030  -0.00548   0.01292  -0.03096   0.05807
  75        3PZ         0.00040  -0.00181   0.01187  -0.03080   0.08025
  76        4XX         0.00133   0.00183  -0.00331   0.00464   0.00188
  77        4YY        -0.00013  -0.00001  -0.00129   0.00201  -0.00256
  78        4ZZ        -0.00065  -0.00117  -0.00083   0.00005   0.00014
  79        4XY         0.00050   0.00116   0.00449  -0.00848   0.01211
  80        4XZ         0.00064   0.00129   0.00482  -0.00863   0.00931
  81        4YZ        -0.00014  -0.00006  -0.00300   0.00607  -0.01015
  82 9   H  1S          0.00557   0.01146   0.01134  -0.02346   0.03332
  83        2S          0.00828   0.01176   0.00842  -0.01625   0.04820
  84 10  H  1S         -0.00148  -0.00314   0.00784  -0.02016   0.03091
  85        2S         -0.00059  -0.00663   0.00723  -0.01474   0.01971
                          51        52        53        54        55
  51        2PY         0.40034
  52        2PZ        -0.01536   0.36903
  53        3S         -0.02147  -0.02820   0.31443
  54        3PX         0.01681   0.02182   0.05460   0.07765
  55        3PY         0.19040  -0.01926  -0.01173   0.02041   0.09454
  56        3PZ        -0.02124   0.18959   0.00407   0.02777  -0.01277
  57        4XX         0.00910   0.02521  -0.00175   0.00168   0.00354
  58        4YY        -0.02472  -0.01731   0.00945  -0.00219  -0.01178
  59        4ZZ         0.01514  -0.01045   0.00632   0.00196   0.00771
  60        4XY        -0.00145  -0.00800   0.00228   0.00309   0.00055
  61        4XZ        -0.00721   0.00382   0.00445   0.01075  -0.00143
  62        4YZ        -0.02519   0.01604  -0.00193  -0.00333  -0.01340
  63 6   H  1S          0.16457  -0.20176   0.11023   0.01209   0.08357
  64        2S          0.13373  -0.14313   0.02484   0.00145   0.06898
  65 7   H  1S         -0.24931  -0.07313   0.11197  -0.01763  -0.12225
  66        2S         -0.21245  -0.05202   0.02602  -0.01813  -0.10290
  67 8   N  1S         -0.01413  -0.02963   0.01822   0.00395  -0.00232
  68        2S          0.03100   0.06273  -0.02942  -0.00929   0.00469
  69        2PX         0.07406   0.13965   0.07558  -0.08115   0.00599
  70        2PY        -0.02691  -0.05216  -0.00372   0.03125  -0.01301
  71        2PZ        -0.04675  -0.08174  -0.02238   0.05287  -0.00420
  72        3S          0.01441   0.06891  -0.08215  -0.01567  -0.00438
  73        3PX         0.03498   0.07245   0.01558  -0.06089  -0.00195
  74        3PY        -0.06790  -0.03509   0.00413   0.01945  -0.03473
  75        3PZ        -0.02585  -0.06747  -0.00041   0.03000  -0.00183
  76        4XX         0.00384   0.00658   0.00348   0.00251   0.00145
  77        4YY        -0.00322   0.00157   0.00149  -0.00141  -0.00137
  78        4ZZ         0.00234  -0.00791  -0.00104   0.00022   0.00139
  79        4XY         0.00093  -0.00943  -0.00641   0.00534   0.00239
  80        4XZ        -0.00497  -0.00088  -0.00733   0.00440  -0.00102
  81        4YZ        -0.00155   0.00541   0.00314  -0.00436  -0.00212
  82 9   H  1S         -0.00898  -0.01423  -0.03916   0.02527   0.00305
  83        2S         -0.00722  -0.00387  -0.01018   0.02446   0.00271
  84 10  H  1S         -0.00374  -0.03053  -0.02250   0.01782   0.00574
  85        2S          0.00521  -0.05647  -0.01205   0.00269   0.00719
                          56        57        58        59        60
  56        3PZ         0.10525
  57        4XX         0.01218   0.00278
  58        4YY        -0.00792  -0.00210   0.00306
  59        4ZZ        -0.00561  -0.00051  -0.00046   0.00139
  60        4XY        -0.00312  -0.00042  -0.00004   0.00046   0.00104
  61        4XZ         0.00494   0.00007   0.00019  -0.00029   0.00057
  62        4YZ         0.00814   0.00019   0.00130  -0.00157  -0.00094
  63 6   H  1S         -0.10558  -0.00876   0.00057   0.01460   0.00543
  64        2S         -0.07684  -0.00616  -0.00298   0.01093   0.00505
  65 7   H  1S         -0.03047  -0.01153   0.02319  -0.00574   0.00051
  66        2S         -0.02245  -0.01072   0.01928  -0.00700  -0.00151
  67 8   N  1S         -0.00262  -0.00472   0.00076   0.00005   0.00492
  68        2S          0.00819   0.00874  -0.00165  -0.00076  -0.01056
  69        2PX         0.05353   0.00258  -0.00405   0.00293  -0.01036
  70        2PY        -0.01633  -0.01525   0.01977  -0.00539  -0.01522
  71        2PZ        -0.03293  -0.01784   0.00481   0.01095   0.00750
  72        3S          0.00766   0.00696   0.00084  -0.00350  -0.01434
  73        3PX         0.02251   0.00053  -0.00180   0.00091  -0.00638
  74        3PY        -0.01008  -0.01378   0.01996  -0.00619  -0.01394
  75        3PZ        -0.02924  -0.01229   0.00450   0.00728   0.00425
  76        4XX         0.00332   0.00113  -0.00022  -0.00045  -0.00062
  77        4YY         0.00087   0.00032  -0.00056   0.00022   0.00082
  78        4ZZ        -0.00492  -0.00073   0.00033   0.00065  -0.00005
  79        4XY        -0.00392  -0.00004  -0.00012   0.00002   0.00065
  80        4XZ         0.00034   0.00038  -0.00004  -0.00052   0.00028
  81        4YZ         0.00245   0.00113   0.00004  -0.00103  -0.00051
  82 9   H  1S         -0.00804   0.00908  -0.00281  -0.00441   0.00183
[...]
  62        4YZ        -0.00000  -0.00000   0.00000   0.00000   0.00000
  63 6   H  1S          0.00000  -0.00000  -0.00189   0.03008   0.00196
  64        2S         -0.00001  -0.00016  -0.00088   0.01401   0.00066
  65 7   H  1S         -0.00000  -0.00001  -0.00174   0.02713   0.00030
  66        2S         -0.00001  -0.00024  -0.00047   0.00777   0.00021
  67 8   N  1S          0.00000   0.00000   0.00000  -0.00014  -0.00071
  68        2S         -0.00000  -0.00000  -0.00008   0.00356   0.01230
  69        2PX        -0.00000  -0.00000  -0.00048   0.01455   0.02464
  70        2PY        -0.00000   0.00000  -0.00008   0.00237   0.00612
  71        2PZ         0.00000  -0.00000  -0.00018   0.00583   0.01626
  72        3S         -0.00000  -0.00002   0.00059  -0.00438   0.02071
  73        3PX        -0.00000  -0.00008  -0.00188   0.01969   0.01384
  74        3PY         0.00000   0.00000  -0.00046   0.00488   0.00686
  75        3PZ         0.00000  -0.00000  -0.00070   0.00811   0.01583
  76        4XX         0.00000   0.00000  -0.00007   0.00093  -0.00033
  77        4YY        -0.00000  -0.00000  -0.00000   0.00018   0.00031
  78        4ZZ        -0.00000  -0.00000  -0.00001   0.00001  -0.00003
  79        4XY        -0.00000  -0.00000  -0.00006   0.00075   0.00121
  80        4XZ         0.00000   0.00000  -0.00011   0.00128   0.00155
  81        4YZ         0.00000   0.00000  -0.00003   0.00035   0.00093
  82 9   H  1S          0.00000   0.00000   0.00000  -0.00029  -0.00084
  83        2S          0.00000   0.00000   0.00015  -0.00215  -0.00623
  84 10  H  1S         -0.00000  -0.00000   0.00000  -0.00025  -0.00046
  85        2S         -0.00000  -0.00002   0.00013  -0.00196  -0.00151
                          51        52        53        54        55
  51        2PY         0.40034
  52        2PZ         0.00000   0.36903
  53        3S          0.00000   0.00000   0.31443
  54        3PX         0.00000   0.00000   0.00000   0.07765
  55        3PY         0.10848   0.00000   0.00000   0.00000   0.09454
  56        3PZ         0.00000   0.10802   0.00000   0.00000   0.00000
  57        4XX         0.00000   0.00000  -0.00110   0.00000   0.00000
  58        4YY         0.00000   0.00000   0.00595   0.00000   0.00000
  59        4ZZ         0.00000   0.00000   0.00398   0.00000   0.00000
  60        4XY         0.00000   0.00000   0.00000   0.00000   0.00000
  61        4XZ         0.00000   0.00000   0.00000   0.00000   0.00000
  62        4YZ         0.00000   0.00000   0.00000   0.00000   0.00000
  63 6   H  1S          0.03585   0.06037   0.04188   0.00089   0.02509
  64        2S          0.02071   0.03045   0.01758   0.00012   0.02336
  65 7   H  1S          0.08624   0.00899   0.04209   0.00043   0.05924
  66        2S          0.05313   0.00462   0.01830   0.00050   0.05648
  67 8   N  1S         -0.00009  -0.00033   0.00079  -0.00030  -0.00007
  68        2S          0.00175   0.00592  -0.00749   0.00344   0.00067
  69        2PX         0.00527   0.01661   0.01031   0.00422   0.00047
  70        2PY        -0.00079   0.00238   0.00019   0.00245  -0.00159
  71        2PZ         0.00213   0.00159   0.00196   0.00691   0.00021
  72        3S          0.00114   0.00914  -0.04045   0.00771  -0.00083
  73        3PX         0.00413   0.01429   0.00684  -0.00307  -0.00033
  74        3PY        -0.01089   0.00266  -0.00070   0.00327  -0.01475
  75        3PZ         0.00196  -0.00535   0.00011   0.00844   0.00020
  76        4XX         0.00045   0.00128   0.00100  -0.00071   0.00024
  77        4YY         0.00001   0.00012   0.00035   0.00049  -0.00011
  78        4ZZ         0.00016  -0.00024  -0.00026  -0.00008   0.00020
  79        4XY         0.00005   0.00086   0.00027   0.00008   0.00023
  80        4XZ         0.00045   0.00004   0.00051   0.00011   0.00004
  81        4YZ         0.00006   0.00008   0.00008   0.00017   0.00013
  82 9   H  1S         -0.00002  -0.00005  -0.00356  -0.00574   0.00007
  83        2S         -0.00010  -0.00007  -0.00303  -0.01104   0.00013
  84 10  H  1S         -0.00000  -0.00064  -0.00206  -0.00240   0.00001
  85        2S          0.00001  -0.00605  -0.00360  -0.00072   0.00004
                          56        57        58        59        60
  56        3PZ         0.10525
  57        4XX         0.00000   0.00278
  58        4YY         0.00000  -0.00070   0.00306
  59        4ZZ         0.00000  -0.00017  -0.00015   0.00139
  60        4XY         0.00000   0.00000   0.00000   0.00000   0.00104
  61        4XZ         0.00000   0.00000   0.00000   0.00000   0.00000
  62        4YZ         0.00000   0.00000   0.00000   0.00000   0.00000
  63 6   H  1S          0.04355  -0.00111   0.00013   0.00495   0.00027
  64        2S          0.03575  -0.00219  -0.00114   0.00443   0.00006
  65 7   H  1S          0.00524  -0.00135   0.00963  -0.00089   0.00001
  66        2S          0.00438  -0.00376   0.00813  -0.00251  -0.00001
  67 8   N  1S         -0.00013  -0.00007   0.00000   0.00000  -0.00005
  68        2S          0.00194   0.00139  -0.00009  -0.00007   0.00086
  69        2PX         0.00700   0.00036  -0.00030   0.00036   0.00096
  70        2PY         0.00082   0.00137   0.00016   0.00026   0.00053
  71        2PZ        -0.00225   0.00269  -0.00023  -0.00020   0.00060
  72        3S          0.00242   0.00191   0.00017  -0.00079   0.00078
  73        3PX         0.00633   0.00015  -0.00059   0.00033   0.00021
  74        3PY         0.00109   0.00231  -0.00125   0.00085   0.00150
  75        3PZ        -0.00904   0.00344  -0.00094  -0.00092   0.00024
  76        4XX         0.00090   0.00019  -0.00003  -0.00010   0.00008
  77        4YY         0.00019   0.00004  -0.00002   0.00001   0.00002
  78        4ZZ        -0.00072  -0.00015   0.00002   0.00003   0.00001
  79        4XY         0.00016   0.00001  -0.00000  -0.00000  -0.00004
  80        4XZ         0.00002  -0.00008   0.00000   0.00002   0.00004
  81        4YZ        -0.00005   0.00015  -0.00000  -0.00002  -0.00003
  82 9   H  1S         -0.00024   0.00023  -0.00001  -0.00001  -0.00001
  83        2S          0.00018   0.00066  -0.00015  -0.00021  -0.00003
  84 10  H  1S         -0.00392  -0.00005  -0.00001   0.00014  -0.00000
  85        2S         -0.01149  -0.00065   0.00001   0.00069  -0.00000
                          61        62        63        64        65
  61        4XZ         0.00255
  62        4YZ         0.00000   0.00289
  63 6   H  1S          0.00027   0.00557   0.21205
  64        2S          0.00006   0.00106   0.09410   0.11136
  65 7   H  1S          0.00002   0.00260  -0.00061  -0.00808   0.21332
  66        2S          0.00000   0.00063  -0.00921  -0.02486   0.10608
  67 8   N  1S         -0.00009  -0.00002   0.00000   0.00015   0.00000
  68        2S          0.00160   0.00041  -0.00010  -0.00246  -0.00001
  69        2PX         0.00278   0.00071  -0.00010  -0.00118  -0.00004
  70        2PY         0.00082   0.00034  -0.00003  -0.00047  -0.00027
  71        2PZ         0.00012   0.00004  -0.00017  -0.00295  -0.00007
  72        3S          0.00115   0.00045  -0.00355  -0.01235  -0.00004
  73        3PX         0.00065   0.00033  -0.00198  -0.00361  -0.00049
  74        3PY         0.00045   0.00116  -0.00073  -0.00246  -0.00858
  75        3PZ        -0.00005  -0.00003  -0.00369  -0.00995  -0.00163
  76        4XX        -0.00008   0.00004  -0.00001  -0.00037  -0.00001
  77        4YY         0.00003   0.00001   0.00000   0.00017   0.00000
  78        4ZZ         0.00002  -0.00000   0.00007   0.00050   0.00001
  79        4XY         0.00013  -0.00005   0.00001   0.00002   0.00003
  80        4XZ         0.00009   0.00000   0.00006   0.00013   0.00000
  81        4YZ        -0.00000  -0.00001   0.00001   0.00004   0.00002
  82 9   H  1S         -0.00002  -0.00000  -0.00000  -0.00019  -0.00001
  83        2S         -0.00009  -0.00000  -0.00012  -0.00068  -0.00043
  84 10  H  1S          0.00009  -0.00000   0.00000   0.00052  -0.00000
  85        2S          0.00010  -0.00000   0.00045   0.00347  -0.00005
                          66        67        68        69        70
  66        2S          0.14341
  67 8   N  1S         -0.00006   2.06504
  68        2S          0.00099  -0.02853   0.37532
  69        2PX        -0.00097   0.00000   0.00000   0.42939
  70        2PY        -0.00613   0.00000   0.00000   0.00000   0.65934
  71        2PZ        -0.00137   0.00000   0.00000   0.00000   0.00000
  72        3S          0.00850  -0.03570   0.33170   0.00000   0.00000
  73        3PX        -0.00151   0.00000   0.00000   0.12976   0.00000
  74        3PY        -0.03182   0.00000   0.00000   0.00000   0.29842
  75        3PZ        -0.00505   0.00000   0.00000   0.00000   0.00000
  76        4XX        -0.00011  -0.00062   0.00724   0.00000   0.00000
  77        4YY        -0.00031  -0.00013  -0.00591   0.00000   0.00000
  78        4ZZ         0.00014  -0.00067   0.00860   0.00000   0.00000
  79        4XY         0.00005   0.00000   0.00000   0.00000   0.00000
  80        4XZ        -0.00003   0.00000   0.00000   0.00000   0.00000
  81        4YZ         0.00000   0.00000   0.00000   0.00000   0.00000
  82 9   H  1S         -0.00053  -0.00173   0.02592   0.06592   0.00505
  83        2S         -0.00203   0.00029  -0.00307   0.02112   0.00158
  84 10  H  1S         -0.00018  -0.00173   0.02614   0.00002   0.01645
  85        2S         -0.00059   0.00034  -0.00350   0.00001   0.00492
                          71        72        73        74        75
  71        2PZ         0.45183
  72        3S          0.00000   0.51535
  73        3PX         0.00000   0.00000   0.15048
  74        3PY         0.00000   0.00000   0.00000   0.50849
  75        3PZ         0.14184   0.00000   0.00000   0.00000   0.16749
  76        4XX         0.00000   0.00870   0.00000   0.00000   0.00000
  77        4YY         0.00000  -0.00965   0.00000   0.00000   0.00000
  78        4ZZ         0.00000   0.01063   0.00000   0.00000   0.00000
  79        4XY         0.00000   0.00000   0.00000   0.00000   0.00000
  80        4XZ         0.00000   0.00000   0.00000   0.00000   0.00000
  81        4YZ         0.00000   0.00000   0.00000   0.00000   0.00000
  82 9   H  1S          0.02251   0.03954   0.06324   0.00786   0.02389
  83        2S          0.00735  -0.01066   0.03449   0.00453   0.01308
  84 10  H  1S          0.07721   0.03948   0.00002   0.02159   0.07568
  85        2S          0.02322  -0.01194  -0.00001   0.01156   0.03819
                          76        77        78        79        80
  76        4XX         0.00160
  77        4YY        -0.00028   0.00152
  78        4ZZ        -0.00009  -0.00008   0.00127
  79        4XY         0.00000   0.00000   0.00000   0.00182
  80        4XZ         0.00000   0.00000   0.00000   0.00000   0.00149
  81        4YZ         0.00000   0.00000   0.00000   0.00000   0.00000
  82 9   H  1S          0.00489  -0.00019  -0.00039   0.00195   0.00393
  83        2S          0.00232   0.00005  -0.00138   0.00021   0.00041
  84 10  H  1S         -0.00140   0.00131   0.00571   0.00001   0.00002
  85        2S         -0.00268   0.00153   0.00233   0.00000   0.00000
                          81        82        83        84        85
  81        4YZ         0.00286
  82 9   H  1S          0.00070   0.20005
  83        2S          0.00009   0.06188   0.05444
  84 10  H  1S          0.00528  -0.00113  -0.00713   0.19770
  85        2S          0.00051  -0.00670  -0.00993   0.05728   0.05242
     Gross orbital populations:
                           1
   1 1   C  1S          1.99682
   2        2S          0.69345
   3        2PX         0.63147
   4        2PY         0.39463
   5        2PZ         0.72174
   6        3S          0.33879
   7        3PX         0.12342
   8        3PY         0.21672
   9        3PZ         0.03007
  10        4XX         0.01909
  11        4YY        -0.02646
  12        4ZZ         0.04401
  13        4XY         0.01022
  14        4XZ         0.06191
  15        4YZ         0.02974
  16 2   O  1S          1.99556
  17        2S          0.90401
  18        2PX         1.09788
  19        2PY         0.84065
  20        2PZ         0.91570
  21        3S          0.95175
  22        3PX         0.71826
  23        3PY         0.63601
  24        3PZ         0.44084
  25        4XX         0.00284
  26        4YY         0.00004
  27        4ZZ         0.01625
  28        4XY         0.00003
  29        4XZ         0.00761
  30        4YZ         0.01396
  31 3   O  1S          1.99529
  32        2S          0.90489
  33        2PX         0.82231
  34        2PY         1.08406
  35        2PZ         1.01551
  36        3S          0.88490
  37        3PX         0.47643
  38        3PY         0.77479
  39        3PZ         0.64936
  40        4XX         0.03230
  41        4YY         0.00394
  42        4ZZ         0.01332
  43        4XY         0.00145
  44        4XZ         0.01945
  45        4YZ         0.00382
  46 4   H  1S          0.45251
  47        2S          0.08065
  48 5   C  1S          1.99679
  49        2S          0.63515
  50        2PX         0.58066
  51        2PY         0.71130
  52        2PZ         0.65767
  53        3S          0.61924
  54        3PX         0.22300
  55        3PY         0.35045
  56        3PZ         0.32586
  57        4XX         0.01389
  58        4YY         0.02347
  59        4ZZ         0.01545
  60        4XY         0.00728
  61        4XZ         0.01466
  62        4YZ         0.01618
  63 6   H  1S          0.53082
  64        2S          0.27193
  65 7   H  1S          0.53196
  66        2S          0.30182
  67 8   N  1S          1.99549
  68        2S          0.75771
  69        2PX         0.72706
  70        2PY         0.99423
  71        2PZ         0.75475
  72        3S          0.86173
  73        3PX         0.41229
  74        3PY         0.80615
  75        3PZ         0.46048
  76        4XX         0.02368
  77        4YY        -0.01038
  78        4ZZ         0.02539
  79        4XY         0.00763
  80        4XZ         0.01004
  81        4YZ         0.01133
  82 9   H  1S          0.50622
  83        2S          0.14700
  84 10  H  1S          0.50211
  85        2S          0.13750
          Condensed to atoms (all electrons):
               1          2          3          4          5          6
     1  C    4.196173   0.585589   0.265142  -0.005130   0.330685  -0.019899
     2  O    0.585589   8.074379  -0.085787   0.008232  -0.052000   0.000890
     3  O    0.265142  -0.085787   8.312836   0.242907  -0.059375   0.002719
     4  H   -0.005130   0.008232   0.242907   0.282929   0.004749  -0.000170
     5  C    0.330685  -0.052000  -0.059375   0.004749   5.000853   0.391900
     6  H   -0.019899   0.000890   0.002719  -0.000170   0.391900   0.511616
     7  H   -0.027668   0.000366   0.002455  -0.000252   0.385349  -0.042760
     8  N   -0.035907   0.003123   0.000801  -0.000094   0.255930  -0.045004
     9  H    0.002956  -0.000084  -0.000032   0.000003  -0.032475  -0.000987
    10  H   -0.006310   0.006688   0.000167  -0.000017  -0.034556   0.004441
               7          8          9         10
     1  C   -0.027668  -0.035907   0.002956  -0.006310
     2  O    0.000366   0.003123  -0.000084   0.006688
     3  O    0.002455   0.000801  -0.000032   0.000167
     4  H   -0.000252  -0.000094   0.000003  -0.000017
     5  C    0.385349   0.255930  -0.032475  -0.034556
     6  H   -0.042760  -0.045004  -0.000987   0.004441
     7  H    0.568876  -0.048755  -0.003009  -0.000825
     8  N   -0.048755   7.043724   0.333502   0.330244
     9  H   -0.003009   0.333502   0.378254  -0.024901
    10  H   -0.000825   0.330244  -0.024901   0.364681
 Mulliken charges:
               1
     1  C    0.714370
     2  O   -0.541395
     3  O   -0.681832
     4  H    0.466842
     5  C   -0.191060
     6  H    0.197254
     7  H    0.166223
     8  N   -0.837563
     9  H    0.346774
    10  H    0.360388
 Sum of Mulliken charges =  -0.00000
 Mulliken charges with hydrogens summed into heavy atoms:
               1
     1  C    0.714370
     2  O   -0.541395
     3  O   -0.214990
     5  C    0.172416
     8  N   -0.130400
 Electronic spatial extent (au):  <R**2>=            524.6411
 Charge=             -0.0000 electrons
 Dipole moment (field-independent basis, Debye):
    X=             -0.0731    Y=             -1.5191    Z=             -1.7136  Tot=              2.2912
 Quadrupole moment (field-independent basis, Debye-Ang):
   XX=            -21.2387   YY=            -30.9984   ZZ=            -32.2430
   XY=              4.1398   XZ=              3.2170   YZ=             -0.0614
 Traceless Quadrupole moment (field-independent basis, Debye-Ang):
   XX=              6.9213   YY=             -2.8384   ZZ=             -4.0829
   XY=              4.1398   XZ=              3.2170   YZ=             -0.0614
 Octapole moment (field-independent basis, Debye-Ang**2):
  XXX=             52.1426  YYY=             -6.4518  ZZZ=             15.5890  XYY=             25.7115
  XXY=            -12.2932  XXZ=              4.6372  XZZ=             13.1650  YZZ=             -0.9308
  YYZ=              7.0279  XYZ=             -0.0235
 Hexadecapole moment (field-independent basis, Debye-Ang**3):
 XXXX=           -340.2878 YYYY=            -39.2036 ZZZZ=           -154.2963 XXXY=             41.8373
 XXXZ=            -15.0600 YYYX=             19.8241 YYYZ=              0.3628 ZZZX=            -28.4319
 ZZZY=             -2.1883 XXYY=            -96.4787 XXZZ=            -88.8778 YYZZ=            -31.0632
 XXYZ=              0.0600 YYXZ=            -11.4626 ZZXY=              4.1837
 N-N= 1.735049209130D+02 E-N=-1.012609245391D+03  KE= 2.819754410572D+02
 Orbital energies and kinetic energies (alpha):
                                 1                 2
  16         O                 0.000000          1.305259
  17         O                 0.000000          2.413345
  18         O                 0.000000          2.230781
  19         O                 0.000000          1.601195
  20         O                 0.000000          1.402102
  21         V                 0.000000          2.944148
  22         V                 0.000000          1.728330
  23         V                 0.000000          0.986171
  24         V                 0.000000          1.029038
  25         V                 0.000000          0.954665
 Total kinetic energy from orbitals= 2.819143297592D+02
 No NMR shielding tensors so no spin-rotation constants.
 Leave Link  601 at Sun Mar 29 23:31:13 2020, MaxMem=   629145600 cpu:               0.7 elap:               0.2
 (Enter /opt/g16/l9999.exe)
 1\1\GINC-Q71\SP\CASSCF\6-31G(d)\C2H5N1O2\GRACE\29-Mar-2020\0\\#p CASSC
 F(2,2)/6-31G(d) Guess=read Nosymm SCF=(NoVarAcc, NoIncFock) pop=regula
 r\\2 electrons, 2 orbital\\0,1\C\O,1,1.18694126\O,1,1.32858791,2,122.8
 8609185\H,3,0.95244923,1,108.26803601,2,0.23997401,0\C,1,1.8,2,125.157
 73105,3,177.02736831,0\H,5,1.08274225,1,108.61258999,2,142.70223846,0\
 H,5,1.09290913,1,105.73927629,2,-103.08272599,0\N,5,1.44298247,1,110.2
 1098033,2,21.80149795,0\H,8,1.0000564,5,111.02371786,1,-166.73798541,0
 \H,8,1.00058045,5,110.69022985,1,-46.08017246,0\\Version=ES64L-G16RevA
 .03\HF=-282.8197562\RMSD=0.000e+00\Dipole=-0.0287686,-0.5976674,-0.674
 193\Quadrupole=5.1458173,-2.1102613,-3.0355561,3.0778202,2.3917468,-0.
 0456316\PG=C01 [X(C2H5N1O2)]\\@


 EDUCATION IS NOT TRAINING BUT RATHER THE PROCESS THAT EQUIPS YOU TO
 ENTERTAIN YOURSELF, A FRIEND, OR AN IDEA.  -- WALLACE STERLING
 Job cpu time:       0 days  0 hours  1 minutes  2.2 seconds.
 Elapsed time:       0 days  0 hours  0 minutes 16.1 seconds.
 File lengths (MBytes):  RWF=      6 Int=      0 D2E=      0 Chk=      2 Scr=      1
 Normal termination of Gaussian 16 at Sun Mar 29 23:31:13 2020.
