2 electrons, 2 orbital                                                  
SP        CASSCF                                                      6-31G(d)            
Number of atoms                            I               10
Info1-9                                    I   N=           9
          45          45           0           0           0         110
           1           1           2
Full Title                                 C   N=           2
2 electrons, 2 orbital  
Route                                      C   N=           7
#p CASSCF(2,2)/6-31G(d) Guess=read Nosymm SCF=(NoVarAcc, NoI
ncFock) pop=regular     
Charge                                     I                0
Multiplicity                               I                1
Number of electrons                        I               40
Number of alpha electrons                  I               20
Number of beta electrons                   I               20
Number of basis functions                  I               85
Number of independent functions            I               85
Number of point charges in /Mol/           I                0
Number of translation vectors              I                0
Atomic numbers                             I   N=          10
           6           8           8           1           6           1
           1           7           1           1
Nuclear charges                            R   N=          10
  6.00000000E+00  8.00000000E+00  8.00000000E+00  1.00000000E+00  6.00000000E+00
  1.00000000E+00  1.00000000E+00  7.00000000E+00  1.00000000E+00  1.00000000E+00
Current cartesian coordinates              R   N=          30
  0.00000000E+00  0.00000000E+00  0.00000000E+00  0.00000000E+00  0.00000000E+00
  2.24299391E+00  2.10833710E+00  0.00000000E+00 -1.36321858E+00  3.51013118E+00
 -7.15849857E-03 -2.34304223E-01 -2.77722784E+00 -1.44218143E-01 -1.95868749E+00
 -2.48431596E+00  1.04757080E+00 -3.59585302E+00 -2.87547289E+00 -2.08819501E+00
 -2.64916669E+00 -4.96196100E+00  6.93982424E-01 -5.58678089E-01 -6.55951330E+00
  2.50798094E-01 -1.46580650E+00 -5.00235707E+00 -1.01925724E-01  1.15599682E+00
Number of symbols in /Mol/                 I                0
Force Field                                I                0
Atom Types                                 C   N=          10
                                                            
                                                            
Int Atom Types                             I   N=          10
           0           0           0           0           0           0
           0           0           0           0
MM charges                                 R   N=          10
  0.00000000E+00  0.00000000E+00  0.00000000E+00  0.00000000E+00  0.00000000E+00
  0.00000000E+00  0.00000000E+00  0.00000000E+00  0.00000000E+00  0.00000000E+00
Integer atomic weights                     I   N=          10
          12          16          16           1          12           1
           1          14           1           1
Real atomic weights                        R   N=          10
  1.20000000E+01  1.59949146E+01  1.59949146E+01  1.00782504E+00  1.20000000E+01
  1.00782504E+00  1.00782504E+00  1.40030740E+01  1.00782504E+00  1.00782504E+00
Atom fragment info                         I   N=          10
           0           0           0           0           0           0
           0           0           0           0
Atom residue num                           I   N=          10
           0           0           0           0           0           0
           0           0           0           0
Nuclear spins                              I   N=          10
           0           0           0           1           0           1
           1           2           1           1
Nuclear ZEff                               R   N=          10
 -3.60000000E+00 -5.60000000E+00 -5.60000000E+00 -1.00000000E+00 -3.60000000E+00
 -1.00000000E+00 -1.00000000E+00 -4.55000000E+00 -1.00000000E+00 -1.00000000E+00
Nuclear ZNuc                               R   N=          10
  6.00000000E+00  8.00000000E+00  8.00000000E+00  1.00000000E+00  6.00000000E+00
  1.00000000E+00  1.00000000E+00  7.00000000E+00  1.00000000E+00  1.00000000E+00
Nuclear QMom                               R   N=          10
  0.00000000E+00  0.00000000E+00  0.00000000E+00  0.00000000E+00  0.00000000E+00
  0.00000000E+00  0.00000000E+00  2.04400000E+00  0.00000000E+00  0.00000000E+00
Nuclear GFac                               R   N=          10
  0.00000000E+00  0.00000000E+00  0.00000000E+00  2.79284600E+00  0.00000000E+00
  2.79284600E+00  2.79284600E+00  4.03761000E-01  2.79284600E+00  2.79284600E+00
MicOpt                                     I   N=          10
          -1          -1          -1          -1          -1          -1
          -1          -1          -1          -1
Number of residues                         I                0
Number of secondary structures             I                0
Number of contracted shells                I               30
Number of primitive shells                 I               75
Pure/Cartesian d shells                    I                1
Pure/Cartesian f shells                    I                0
Highest angular momentum                   I                2
Largest degree of contraction              I                6
Shell types                                I   N=          30
           0          -1          -1           2           0          -1
          -1           2           0          -1          -1           2
           0           0           0          -1          -1           2
           0           0           0           0           0          -1
          -1           2           0           0           0           0
Number of primitives per shell             I   N=          30
           6           3           1           1           6           3
           1           1           6           3           1           1
           3           1           6           3           1           1
           3           1           3           1           6           3
           1           1           3           1           3           1
Shell to atom map                          I   N=          30
           1           1           1           1           2           2
           2           2           3           3           3           3
           4           4           5           5           5           5
           6           6           7           7           8           8
           8           8           9           9          10          10
Primitive exponents                        R   N=          75
  3.04752488E+03  4.57369518E+02  1.03948685E+02  2.92101553E+01  9.28666296E+00
  3.16392696E+00  7.86827235E+00  1.88128854E+00  5.44249258E-01  1.68714478E-01
  8.00000000E-01  5.48467166E+03  8.25234946E+02  1.88046958E+02  5.29645000E+01
  1.68975704E+01  5.79963534E+00  1.55396162E+01  3.59993359E+00  1.01376175E+00
  2.70005823E-01  8.00000000E-01  5.48467166E+03  8.25234946E+02  1.88046958E+02
  5.29645000E+01  1.68975704E+01  5.79963534E+00  1.55396162E+01  3.59993359E+00
  1.01376175E+00  2.70005823E-01  8.00000000E-01  1.87311370E+01  2.82539436E+00
  6.40121692E-01  1.61277759E-01  3.04752488E+03  4.57369518E+02  1.03948685E+02
  2.92101553E+01  9.28666296E+00  3.16392696E+00  7.86827235E+00  1.88128854E+00
  5.44249258E-01  1.68714478E-01  8.00000000E-01  1.87311370E+01  2.82539436E+00
  6.40121692E-01  1.61277759E-01  1.87311370E+01  2.82539436E+00  6.40121692E-01
  1.61277759E-01  4.17351146E+03  6.27457911E+02  1.42902093E+02  4.02343293E+01
  1.28202129E+01  4.39043701E+00  1.16263619E+01  2.71627981E+00  7.72218397E-01
  2.12031498E-01  8.00000000E-01  1.87311370E+01  2.82539436E+00  6.40121692E-01
  1.61277759E-01  1.87311370E+01  2.82539436E+00  6.40121692E-01  1.61277759E-01
Contraction coefficients                   R   N=          75
  1.83473713E-03  1.40373228E-02  6.88426223E-02  2.32184443E-01  4.67941348E-01
  3.62311985E-01 -1.19332420E-01 -1.60854152E-01  1.14345644E+00  1.00000000E+00
  1.00000000E+00  1.83107443E-03  1.39501722E-02  6.84450781E-02  2.32714336E-01
  4.70192898E-01  3.58520853E-01 -1.10777550E-01 -1.48026263E-01  1.13076702E+00
  1.00000000E+00  1.00000000E+00  1.83107443E-03  1.39501722E-02  6.84450781E-02
  2.32714336E-01  4.70192898E-01  3.58520853E-01 -1.10777550E-01 -1.48026263E-01
  1.13076702E+00  1.00000000E+00  1.00000000E+00  3.34946043E-02  2.34726953E-01
  8.13757326E-01  1.00000000E+00  1.83473713E-03  1.40373228E-02  6.88426223E-02
  2.32184443E-01  4.67941348E-01  3.62311985E-01 -1.19332420E-01 -1.60854152E-01
  1.14345644E+00  1.00000000E+00  1.00000000E+00  3.34946043E-02  2.34726953E-01
  8.13757326E-01  1.00000000E+00  3.34946043E-02  2.34726953E-01  8.13757326E-01
  1.00000000E+00  1.83477216E-03  1.39946270E-02  6.85865518E-02  2.32240873E-01
  4.69069948E-01  3.60455199E-01 -1.14961182E-01 -1.69117479E-01  1.14585195E+00
  1.00000000E+00  1.00000000E+00  3.34946043E-02  2.34726953E-01  8.13757326E-01
  1.00000000E+00  3.34946043E-02  2.34726953E-01  8.13757326E-01  1.00000000E+00
P(S=P) Contraction coefficients            R   N=          75
  0.00000000E+00  0.00000000E+00  0.00000000E+00  0.00000000E+00  0.00000000E+00
  0.00000000E+00  6.89990666E-02  3.16423961E-01  7.44308291E-01  1.00000000E+00
  0.00000000E+00  0.00000000E+00  0.00000000E+00  0.00000000E+00  0.00000000E+00
  0.00000000E+00  0.00000000E+00  7.08742682E-02  3.39752839E-01  7.27158577E-01
  1.00000000E+00  0.00000000E+00  0.00000000E+00  0.00000000E+00  0.00000000E+00
  0.00000000E+00  0.00000000E+00  0.00000000E+00  7.08742682E-02  3.39752839E-01
  7.27158577E-01  1.00000000E+00  0.00000000E+00  0.00000000E+00  0.00000000E+00
  0.00000000E+00  0.00000000E+00  0.00000000E+00  0.00000000E+00  0.00000000E+00
  0.00000000E+00  0.00000000E+00  0.00000000E+00  6.89990666E-02  3.16423961E-01
  7.44308291E-01  1.00000000E+00  0.00000000E+00  0.00000000E+00  0.00000000E+00
  0.00000000E+00  0.00000000E+00  0.00000000E+00  0.00000000E+00  0.00000000E+00
  0.00000000E+00  0.00000000E+00  0.00000000E+00  0.00000000E+00  0.00000000E+00
  0.00000000E+00  0.00000000E+00  6.75797439E-02  3.23907296E-01  7.40895140E-01
  1.00000000E+00  0.00000000E+00  0.00000000E+00  0.00000000E+00  0.00000000E+00
  0.00000000E+00  0.00000000E+00  0.00000000E+00  0.00000000E+00  0.00000000E+00
Coordinates of each shell                  R   N=          90
  0.00000000E+00  0.00000000E+00  0.00000000E+00  0.00000000E+00  0.00000000E+00
  0.00000000E+00  0.00000000E+00  0.00000000E+00  0.00000000E+00  0.00000000E+00
  0.00000000E+00  0.00000000E+00  0.00000000E+00  0.00000000E+00  2.24299391E+00
  0.00000000E+00  0.00000000E+00  2.24299391E+00  0.00000000E+00  0.00000000E+00
  2.24299391E+00  0.00000000E+00  0.00000000E+00  2.24299391E+00  2.10833710E+00
  0.00000000E+00 -1.36321858E+00  2.10833710E+00  0.00000000E+00 -1.36321858E+00
  2.10833710E+00  0.00000000E+00 -1.36321858E+00  2.10833710E+00  0.00000000E+00
 -1.36321858E+00  3.51013118E+00 -7.15849857E-03 -2.34304223E-01  3.51013118E+00
 -7.15849857E-03 -2.34304223E-01 -2.77722784E+00 -1.44218143E-01 -1.95868749E+00
 -2.77722784E+00 -1.44218143E-01 -1.95868749E+00 -2.77722784E+00 -1.44218143E-01
 -1.95868749E+00 -2.77722784E+00 -1.44218143E-01 -1.95868749E+00 -2.48431596E+00
  1.04757080E+00 -3.59585302E+00 -2.48431596E+00  1.04757080E+00 -3.59585302E+00
 -2.87547289E+00 -2.08819501E+00 -2.64916669E+00 -2.87547289E+00 -2.08819501E+00
 -2.64916669E+00 -4.96196100E+00  6.93982424E-01 -5.58678089E-01 -4.96196100E+00
  6.93982424E-01 -5.58678089E-01 -4.96196100E+00  6.93982424E-01 -5.58678089E-01
 -4.96196100E+00  6.93982424E-01 -5.58678089E-01 -6.55951330E+00  2.50798094E-01
 -1.46580650E+00 -6.55951330E+00  2.50798094E-01 -1.46580650E+00 -5.00235707E+00
 -1.01925724E-01  1.15599682E+00 -5.00235707E+00 -1.01925724E-01  1.15599682E+00
Num ILSW                                   I              100
ILSW                                       I   N=         100
           0           1           0           0           0           0
           0           0           0           0           0          -1
           5           0           0           0           0           0
           0           0           0           3           0           0
           1           1           0           0           0           0
           0           0      100000           0          -1           0
           0           0           0           0           0           0
           0           0           0           1           0           0
           0 -2000000000           1           0           0         202
           0           0           4          52           0           0
           0           0           0           0           0           0
           0           0           0          10           0           1
           0           0           0           0           0           0
           0           0           0           0           0           0
           0           0           0           0           0           0
           0           0           0           0           0           0
           0           0           0           0
Num RLSW                                   I               52
RLSW                                       R   N=          52
  1.00000000E+00  1.00000000E+00  1.00000000E+00  1.00000000E+00  1.00000000E+00
  0.00000000E+00  0.00000000E+00  1.00000000E+00  0.00000000E+00  0.00000000E+00
  0.00000000E+00  0.00000000E+00  1.00000000E+00  0.00000000E+00  0.00000000E+00
  0.00000000E+00  0.00000000E+00  1.00000000E+00  0.00000000E+00  0.00000000E+00
  0.00000000E+00  0.00000000E+00  1.00000000E+00  0.00000000E+00  0.00000000E+00
  0.00000000E+00  0.00000000E+00  1.00000000E+00  0.00000000E+00  0.00000000E+00
  0.00000000E+00  0.00000000E+00  1.00000000E+00  0.00000000E+00  0.00000000E+00
  0.00000000E+00  0.00000000E+00  0.00000000E+00  1.00000000E+00  1.00000000E+00
  0.00000000E+00  1.00000000E+00  0.00000000E+00  0.00000000E+00  0.00000000E+00
  0.00000000E+00  0.00000000E+00  0.00000000E+00  0.00000000E+00  0.00000000E+00
  0.00000000E+00  0.00000000E+00
Number of CAS Electrons                    I                2
Number of CAS Orbitals                     I                2
MxBond                                     I                4
NBond                                      I   N=          10
           3           1           2           1           4           1
           1           3           1           1
IBond                                      I   N=          40
           2           3           5           0           1           0
           0           0           1           4           0           0
           3           0           0           0           1           6
           7           8           5           0           0           0
           5           0           0           0           5           9
          10           0           8           0           0           0
           8           0           0           0
RBond                                      R   N=          40
  2.00000000E+00  1.00000000E+00  1.00000000E+00  0.00000000E+00  2.00000000E+00
  0.00000000E+00  0.00000000E+00  0.00000000E+00  1.00000000E+00  1.00000000E+00
  0.00000000E+00  0.00000000E+00  1.00000000E+00  0.00000000E+00  0.00000000E+00
  0.00000000E+00  1.00000000E+00  1.00000000E+00  1.00000000E+00  1.00000000E+00
  1.00000000E+00  0.00000000E+00  0.00000000E+00  0.00000000E+00  1.00000000E+00
  0.00000000E+00  0.00000000E+00  0.00000000E+00  1.00000000E+00  1.00000000E+00
  1.00000000E+00  0.00000000E+00  1.00000000E+00  0.00000000E+00  0.00000000E+00
  0.00000000E+00  1.00000000E+00  0.00000000E+00  0.00000000E+00  0.00000000E+00
Virial Ratio                               R      0.000000000000000E+00
SCF Energy                                 R     -2.828197562161610E+02
Total Energy                               R     -2.828197562161610E+02
Job Status                                 I                1
Nuclear derivative order                   I                0
External E-field                           R   N=          35
  0.00000000E+00  0.00000000E+00  0.00000000E+00  0.00000000E+00  0.00000000E+00
  0.00000000E+00  0.00000000E+00  0.00000000E+00  0.00000000E+00  0.00000000E+00
  0.00000000E+00  0.00000000E+00  0.00000000E+00  0.00000000E+00  0.00000000E+00
  0.00000000E+00  0.00000000E+00  0.00000000E+00  0.00000000E+00  0.00000000E+00
  0.00000000E+00  0.00000000E+00  0.00000000E+00  0.00000000E+00  0.00000000E+00
  0.00000000E+00  0.00000000E+00  0.00000000E+00  0.00000000E+00  0.00000000E+00
  0.00000000E+00  0.00000000E+00  0.00000000E+00  0.00000000E+00  0.00000000E+00
IOpCl                                      I                0
IROHF                                      I                3
Alpha Orbital Energies                     R   N=          85
  0.00000000E+00  0.00000000E+00  0.00000000E+00  0.00000000E+00  0.00000000E+00
  0.00000000E+00  0.00000000E+00  0.00000000E+00  0.00000000E+00  0.00000000E+00
  0.00000000E+00  0.00000000E+00  0.00000000E+00  0.00000000E+00  0.00000000E+00
  0.00000000E+00  0.00000000E+00  0.00000000E+00  0.00000000E+00  0.00000000E+00
  0.00000000E+00  0.00000000E+00  0.00000000E+00  0.00000000E+00  0.00000000E+00
  0.00000000E+00  0.00000000E+00  0.00000000E+00  0.00000000E+00  0.00000000E+00
  0.00000000E+00  0.00000000E+00  0.00000000E+00  0.00000000E+00  0.00000000E+00
  0.00000000E+00  0.00000000E+00  0.00000000E+00  0.00000000E+00  0.00000000E+00
  0.00000000E+00  0.00000000E+00  0.00000000E+00  0.00000000E+00  0.00000000E+00
  0.00000000E+00  0.00000000E+00  0.00000000E+00  0.00000000E+00  0.00000000E+00
  0.00000000E+00  0.00000000E+00  0.00000000E+00  0.00000000E+00  0.00000000E+00
  0.00000000E+00  0.00000000E+00  0.00000000E+00  0.00000000E+00  0.00000000E+00
  0.00000000E+00  0.00000000E+00  0.00000000E+00  0.00000000E+00  0.00000000E+00
  0.00000000E+00  0.00000000E+00  0.00000000E+00  0.00000000E+00  0.00000000E+00
  0.00000000E+00  0.00000000E+00  0.00000000E+00  0.00000000E+00  0.00000000E+00
  0.00000000E+00  0.00000000E+00  0.00000000E+00  0.00000000E+00  0.00000000E+00
  0.00000000E+00  0.00000000E+00  0.00000000E+00  0.00000000E+00  0.00000000E+00
Alpha MO coefficients                      R   N=        7225
 -6.51030405E-06  4.62694376E-04  2.10342751E-04  2.27234346E-07 -1.92791712E-04
 -1.50903341E-04  3.65619744E-05 -1.50306830E-05  6.23928460E-04 -1.33469460E-04
 -5.15158462E-05 -5.15949969E-05  1.60728854E-06  8.44499953E-05  1.39603799E-06
 -3.18809045E-04  4.38310970E-05 -3.31405576E-05 -1.25142501E-06  3.98788895E-05
 -4.95239521E-04 -2.86889039E-05  6.71979227E-06  1.02278483E-04  3.26892302E-05
  4.71663912E-06  1.19150329E-05 -1.96337553E-07  6.81873794E-05 -9.16876537E-07
  9.94598921E-01  2.12194471E-02 -9.61965623E-05 -7.45347627E-06  1.28695011E-03
  4.38529011E-03 -1.69342669E-04  5.27594049E-06 -5.80170708E-04 -4.19558567E-03
 -4.03709092E-03 -4.13273593E-03  9.36523697E-07 -3.57400753E-05  8.65679954E-07
  4.19588754E-04 -2.49218579E-04 -9.26505092E-06 -1.26974761E-05  4.93394323E-05
 -3.15159490E-06  2.41385081E-05  4.37311935E-04 -7.19528360E-05  1.13342408E-04
  1.55077032E-04  1.12389945E-06 -7.92905552E-06  5.29078934E-06 -1.23545335E-05
 -9.15824224E-06  1.19108574E-05  1.40964614E-05 -7.82930189E-05 -1.14874892E-06
  1.95834138E-05  9.71282592E-06  3.70020933E-05 -5.53513913E-07 -1.28768175E-06
 -2.11256385E-06 -2.85150898E-04 -1.45817766E-04  3.70854537E-05  6.61928635E-05
 -4.07069699E-07  2.35000225E-05  1.57574716E-05  7.62605312E-06  9.65184428E-06
  8.76876607E-07  9.39349872E-06 -7.73671559E-06  1.75655092E-05 -4.53323494E-05
 -1.54411045E-05  4.14866188E-04 -4.28805483E-05  1.62502273E-06 -2.21794628E-04
 -5.91140480E-04 -1.73068643E-04 -1.39278156E-05 -6.57900090E-04 -4.42320503E-05
 -8.20344606E-06 -9.24738966E-04  1.57780080E-07  3.61211439E-05  1.20260208E-06
  9.94664617E-01  2.10502437E-02  2.88587731E-05 -6.40761213E-06 -1.67185458E-03
  4.87660252E-03  3.20242411E-05  6.18581702E-06 -1.32774604E-04 -3.99624488E-03
 -4.19697034E-03 -3.51165119E-03  3.16182634E-06 -5.06274146E-06  4.91880667E-07
  3.29912600E-04 -5.63031200E-05  1.38167456E-05 -1.94235285E-07 -4.65864098E-05
  1.67342771E-04 -4.87661735E-05  3.26202203E-06  1.02020087E-04  7.97836826E-05
 -7.69763509E-05 -9.68549508E-05 -5.37875525E-07  1.72511283E-05  7.73518457E-07
 -3.14754645E-05  6.92535165E-07  1.09115839E-07  2.87451604E-05  1.74581297E-05
  3.86841690E-06  1.43560678E-05 -1.08683765E-04 -1.44959757E-04  1.70701787E-05
 -1.02336343E-05  1.32863921E-05  5.29848665E-06 -9.91467901E-06 -4.19440271E-06
 -1.27651986E-05  3.79281063E-07  1.11419739E-05 -2.67606844E-05  6.66869661E-06
 -1.00166060E-05  1.96034591E-06 -4.25422908E-06  9.01059020E-06  2.57844455E-06
 -1.74363016E-06 -4.16534314E-06 -5.90973766E-05 -2.33399833E-06  4.66073354E-05
  8.58945264E-06  5.60734912E-06 -5.15032663E-06  5.53463733E-06  1.05334371E-05
 -3.37949865E-06 -7.14018294E-06 -1.71160566E-05  2.01595013E-05 -9.10101225E-05
 -1.79163404E-06  4.60559005E-05 -1.19089579E-06 -6.03037763E-06 -1.00328320E-05
 -4.11887259E-04  2.20901468E-04  6.56811861E-05 -1.28498880E-04 -3.99958769E-05
  4.44460347E-06 -2.61149225E-05 -8.37826356E-06 -1.26279154E-05  1.91653741E-07
 -6.89795757E-06 -4.12539381E-05  1.84566774E-06  1.43293563E-06  6.45312287E-06
  2.93431204E-04 -1.07044999E-05 -1.88006732E-05 -1.14345386E-04 -3.56690085E-05
 -1.83047020E-05  5.67774663E-08 -1.73040247E-06  4.20888990E-06  4.59326158E-06
 -2.71395820E-06 -1.25556531E-05  8.83339399E-06  4.93986447E-06  6.08036707E-06
  7.50261636E-06 -4.42419017E-05 -2.36350567E-05 -1.88408231E-05 -6.77233688E-07
 -1.45348426E-05 -1.50322398E-05  3.00072646E-06 -9.39364472E-06 -2.35853846E-06
  1.40905049E-05 -2.77234543E-06 -2.41577915E-05  2.01378853E-04 -1.74173036E-04
  8.87554626E-05  1.11059065E-04  1.69151702E-03 -5.01100656E-04 -1.52576491E-04
  4.66188738E-04 -1.87618837E-04 -1.11894357E-04 -1.39461510E-04  5.20808108E-05
  5.88891503E-05 -9.53312095E-06 -5.28158843E-05 -1.56836220E-05 -1.51321921E-04
 -2.16973517E-04  9.94987688E-01  2.50160580E-02  5.23312826E-06 -1.43309530E-03
 -2.43399330E-04 -2.48975882E-03 -2.60217231E-04  1.10865734E-03  3.26150979E-04
 -3.47184703E-03 -3.24998117E-03 -3.43695784E-03  6.11996012E-05  2.56267522E-05
 -8.33890421E-06  2.90964532E-04  5.69679731E-04  2.79696274E-04  5.44740756E-04
  9.96190414E-01  2.50747778E-02  2.25227623E-03 -2.24099589E-06  8.45725789E-04
 -5.21120028E-03  2.80543006E-03  1.18231605E-04  3.25228422E-03 -1.43668981E-03
 -2.36098745E-03 -6.41798376E-04 -6.00878796E-06 -6.06823186E-04 -2.61150135E-06
 -4.24381694E-04  7.50633006E-04 -1.96238272E-04 -5.80764034E-06 -6.27975806E-04
 -3.18556184E-03 -1.00082103E-03 -5.26552111E-05  1.50985302E-03  1.21218297E-04
  2.74923322E-04  2.51170771E-04 -3.56738688E-06  9.56952438E-05  9.75623014E-06
 -2.16582447E-04  7.33154697E-04 -2.62044673E-04 -2.15649851E-06  1.89954178E-04
 -9.69831416E-04  4.28596205E-04 -2.83873238E-05 -1.62242702E-03 -4.76795501E-04
  4.19733891E-04 -1.30944803E-04  3.29370027E-06  4.15989854E-04 -6.35688167E-06
  2.32401064E-04 -1.42771843E-04  1.60146246E-04 -4.55618708E-04 -8.19183416E-04
 -1.33034067E-04 -6.91132754E-04  2.18818626E-03  1.13635005E-03  4.86630453E-05
  2.93711763E-04 -2.88897439E-04 -1.13574292E-04 -2.24558983E-04  6.56212521E-06
 -1.11312851E-04 -2.07044863E-05 -9.89363159E-05  2.27085283E-04 -6.10842821E-05
  4.31060810E-04 -5.49871295E-05 -3.14796353E-06  3.87333349E-05  1.48735660E-05
 -1.35583205E-07  2.85887170E-04  4.55342522E-04  1.30504605E-05 -5.11124371E-05
 -7.17252779E-05 -9.21180150E-05  2.03835709E-05 -3.70391147E-05 -1.85102930E-05
  3.22504609E-05 -7.86531083E-05  7.61930584E-05 -9.14031994E-06  2.55161630E-04
  2.33056119E-05 -7.10909165E-04  6.66079862E-04 -6.64251367E-06  5.50386636E-04
  1.82070714E-03 -2.42521140E-03  2.86541816E-05 -9.84402793E-04 -2.76104947E-04
 -2.10646169E-04 -2.05588955E-04 -4.47160403E-06 -1.61623388E-04 -1.15787129E-05
 -7.38108495E-05 -3.73576696E-05 -2.24393755E-04  4.17718444E-06 -1.69964948E-04
  7.35981242E-04  3.12133620E-04 -5.01822207E-05 -3.11932439E-04 -8.57028620E-05
 -1.75849266E-04 -2.81917089E-05  9.31778646E-06 -1.43538903E-04  5.71388968E-06
 -1.18615751E-04 -1.00099860E-04 -1.04028834E-04  2.84043164E-06  1.80202978E-05
  1.45951239E-03 -4.96066736E-04 -3.77095071E-05  4.28850234E-04 -1.74494585E-04
 -2.40104534E-04 -4.83858884E-05  1.32059562E-05 -5.66282288E-05  4.22964229E-06
 -1.23797785E-04  8.50527129E-05  9.96110462E-01  2.74018767E-02 -9.87542381E-04
 -2.04516512E-05 -3.87904710E-04 -1.60940322E-02 -1.03796247E-03 -2.98282664E-04
 -1.28959827E-03 -1.77937165E-03 -1.37953338E-03 -1.62537757E-03 -5.33482235E-05
 -3.96846208E-04 -3.98617170E-05  2.96584833E-04  2.87116396E-03  3.11235291E-04
  2.85077535E-03 -2.78410587E-04  5.02955913E-05  1.11017331E-04  1.09056480E-05
  4.33837840E-05  3.39225679E-03  1.18988007E-03 -2.87995616E-04 -5.54710908E-04
 -4.92238157E-04 -1.59230962E-04 -2.72334730E-04  1.37932064E-04  2.36980749E-04
 -9.39251165E-05 -1.76923077E-04 -4.46970913E-05 -2.67419554E-05  3.31065801E-04
 -1.07893322E-01  2.06829430E-01  1.06754158E-01 -7.75857359E-05  6.35307132E-02
  2.54346735E-02 -1.27455970E-02 -2.95397739E-04 -2.94998388E-03  3.06616340E-03
 -1.94327736E-02  1.55410053E-02 -1.65658173E-05 -1.57585607E-02 -9.12973008E-06
 -1.08680588E-01  2.39933489E-01  1.11809053E-02 -4.39410466E-04 -9.43306260E-02
  2.03342169E-01  7.67372512E-03 -4.81742633E-04 -3.38329544E-02 -1.58670022E-03
 -5.02708326E-04  1.27034380E-02  5.38553197E-05 -3.25958651E-03  7.00202629E-05
 -1.61726134E-01  3.65531029E-01 -3.13996868E-02 -4.87363037E-04  8.81442130E-02
  3.35846518E-01 -1.60827956E-02 -4.56167097E-04  4.81384738E-02  1.70403629E-02
 -7.12255912E-04  1.49459792E-02 -2.17718074E-05 -2.19338648E-04 -7.86160112E-05
  8.93878833E-02 -8.58169173E-03 -1.78141806E-03  1.96838127E-03 -5.08093357E-03
 -8.88754187E-04 -4.67357258E-03 -9.26499612E-03 -8.45138759E-03 -8.24806681E-04
 -7.11490096E-03  2.67645117E-03  2.38117909E-04  1.37729294E-03  2.54318430E-05
  1.47474959E-03  2.09171477E-04  3.02095761E-03  2.21427235E-03  3.05527938E-03
  3.12054254E-03 -1.83647516E-03  4.86178263E-03  2.93488860E-03 -5.95503546E-04
 -7.83259129E-05  2.55794754E-03 -5.08379584E-04  4.86758972E-04 -4.12020458E-04
  3.22143056E-05  5.49834388E-04  7.43352608E-04 -3.17847342E-05 -7.12424447E-05
  9.20856528E-05 -8.05817241E-04 -3.15246474E-03  2.45197322E-03  1.37404937E-03
 -4.84524098E-02  9.40611848E-02 -6.98120653E-02  2.09323008E-06  2.22634330E-01
  1.97206983E-02  2.71773382E-03 -4.92954438E-04 -2.52473560E-02 -2.95653621E-02
 -8.25512740E-03  2.89577871E-02  3.40902350E-05  1.48973256E-02 -7.90849008E-05
 -1.68366789E-01  3.65361452E-01 -8.76684175E-03 -4.93941573E-04 -1.11003125E-01
  3.50913179E-01 -4.12020207E-03 -6.16682910E-04 -4.31290491E-02 -2.68645642E-03
 -3.82005585E-03  1.32047818E-02  1.34304435E-04  1.42156181E-03  5.85945231E-05
  1.29843856E-01 -2.92412845E-01 -3.46152681E-03  3.17729209E-04 -3.90966407E-02
 -2.89137579E-01 -2.46537013E-03  4.47487764E-04 -1.77409944E-02 -1.14482625E-02
  5.95475672E-04 -5.42191476E-03  1.94296536E-05 -8.00015251E-03  6.51221050E-05
 -7.67856052E-02  6.06818899E-03 -1.42700891E-03  2.51467019E-03 -3.84830656E-03
  1.90381447E-04  3.31322146E-03 -4.70202309E-03 -1.37588466E-02 -1.81608043E-03
  3.85198335E-03 -7.83263361E-05 -2.45203220E-04  1.76963066E-03 -3.48324953E-04
  8.26202266E-04  4.57519078E-04  9.62562208E-04  9.83922326E-04  1.09979259E-03
 -1.13007200E-03 -3.48573306E-03  7.78397386E-03  2.10539855E-03 -1.65167429E-03
  2.98286120E-04 -7.62278437E-04  2.43334575E-03  2.05880164E-03  3.03917878E-03
  6.03103445E-04 -1.58797576E-05  4.70498971E-04 -1.92905351E-04  1.41049768E-04
 -2.96168224E-04  1.93472041E-03  2.68369700E-04  2.85273810E-03  2.60279308E-03
  3.02639117E-03 -7.85748230E-03  1.21368423E-03  6.22649315E-04 -2.42890921E-03
 -9.17280920E-03  3.71446742E-03  3.19802137E-04  3.23285994E-03  3.31525813E-03
 -3.19914986E-04 -4.70604004E-04 -6.89569402E-05  7.61072308E-04 -7.46174458E-06
  6.88385625E-03 -1.53088355E-02 -7.66206137E-03  1.13114947E-04  2.75575187E-04
 -1.42739764E-02 -7.39047325E-03 -3.58675299E-05 -6.80036941E-04  1.91994759E-04
 -1.07323302E-04 -7.42777960E-04 -4.31968555E-05  4.35433818E-04 -3.10517104E-05
 -1.09360523E-03  3.50760557E-03 -3.64568329E-03 -5.15512748E-05 -1.59713865E-03
  5.12869582E-03 -1.00927901E-03  5.18378374E-05 -1.41159759E-04 -4.07856005E-04
  5.51042656E-04  4.19912573E-04 -3.49590926E-05 -1.15268075E-04 -9.63737086E-06
 -2.45928150E-03 -4.42323799E-03 -8.56205709E-02  1.62672857E-01 -1.12920338E-01
  2.37069283E-02  3.10113302E-02  8.16562804E-02 -1.80428383E-02 -3.36038812E-03
 -1.27174101E-02  1.10045253E-02 -5.98016642E-04  3.16672470E-03 -6.90696425E-03
 -1.61385468E-02  3.67302620E-03  4.10847903E-02  7.06965543E-03  4.15109224E-02
  6.10120581E-03 -1.86610069E-01  3.86641932E-01  1.36206858E-02 -7.56241751E-02
 -2.12343018E-02  3.98953795E-01  4.81015941E-03 -4.11697853E-02 -8.25583556E-03
  1.17301002E-02 -2.19145410E-03  1.39091825E-02  5.61975563E-06  1.47502960E-03
 -2.30822790E-03  1.20808247E-01  2.37630959E-04  1.19531597E-01  2.21694019E-03
  9.33376048E-02 -2.07253265E-01 -1.79594133E-01 -1.77990885E-03  1.04830575E-01
 -9.13033226E-02 -6.55154586E-03  1.37258162E-03 -5.30413008E-03 -5.03015337E-03
  1.18982366E-02 -3.54559460E-03  3.52034869E-05  2.26737382E-02 -8.22667496E-05
 -4.06818924E-02  8.73568507E-02 -4.33987029E-02 -1.00006653E-03  9.25967580E-02
  1.43142593E-01 -2.43097084E-02 -1.45083160E-03  4.81086405E-02  1.81234537E-03